MODEL 1
REMARK VINA RESULT:   -12.933      0.000      0.000
REMARK INTER + INTRA:         -18.727
REMARK INTER:                 -18.225
REMARK INTRA:                  -0.502
REMARK UNBOUND:                -0.502
REMARK SMILES Cc1ccc(NC(=O)c2ccc(CN3CCN(C)CC3)cc2)cc1Nc1nccc(-c2cccnc2)n1
REMARK SMILES IDX 6 1 7 2 8 3 5 5 24 6 23 7 2 8 3 9 4 10 1 11 25 12 26 14
REMARK SMILES IDX 30 15 29 16 37 17 28 18 27 19 31 20 33 21 32 22 34 23 35 24
REMARK SMILES IDX 36 25 9 26 22 27 10 28 21 29 11 30 12 31 13 32 14 33 15 34
REMARK SMILES IDX 20 35 16 36 19 37 17 38 18 39
REMARK H PARENT 6 4 25 13
ROOT
ATOM      1  N   UNL     1      16.766  52.003  14.942  1.00  0.00    -0.322 N
ATOM      2  C   UNL     1      15.716  51.682  15.787  1.00  0.00    +0.255 C
ATOM      3  O   UNL     1      14.646  52.270  15.813  1.00  0.00    -0.269 OA
ATOM      4  H   UNL     1      17.632  51.581  15.148  1.00  0.00    +0.170 HD
ENDROOT
BRANCH   1   5
ATOM      5  C   UNL     1      16.747  52.879  13.797  1.00  0.00    +0.043 A
ATOM      6  C   UNL     1      15.777  54.749  12.446  1.00  0.00    +0.046 A
ATOM      7  C   UNL     1      15.751  53.921  13.597  1.00  0.00    +0.052 A
ATOM      8  C   UNL     1      16.817  54.570  11.425  1.00  0.00    -0.027 A
ATOM      9  C   UNL     1      17.798  53.543  11.629  1.00  0.00    +0.008 A
ATOM     10  C   UNL     1      17.757  52.711  12.806  1.00  0.00    +0.026 A
ATOM     11  C   UNL     1      16.905  55.429  10.142  1.00  0.00    +0.046 C
BRANCH   6  12
ATOM     12  N   UNL     1      14.797  55.734  12.305  1.00  0.00    -0.324 N
ATOM     13  H   UNL     1      13.902  55.486  11.975  1.00  0.00    +0.170 HD
BRANCH  12  14
ATOM     14  C   UNL     1      15.069  57.055  12.622  1.00  0.00    +0.227 A
ATOM     15  C   UNL     1      14.282  59.302  12.713  1.00  0.00    +0.077 A
ATOM     16  C   UNL     1      15.546  59.749  13.224  1.00  0.00    +0.049 A
ATOM     17  N   UNL     1      14.092  57.967  12.434  1.00  0.00    -0.213 NA
ATOM     18  C   UNL     1      16.550  58.774  13.413  1.00  0.00    +0.117 A
ATOM     19  N   UNL     1      16.299  57.453  13.112  1.00  0.00    -0.221 NA
BRANCH  15  20
ATOM     20  C   UNL     1      13.122  60.213  12.455  1.00  0.00    +0.019 A
ATOM     21  C   UNL     1      11.969  62.453  12.573  1.00  0.00    +0.021 A
ATOM     22  C   UNL     1      13.115  61.617  12.846  1.00  0.00    +0.013 A
ATOM     23  C   UNL     1      10.836  61.864  11.909  1.00  0.00    +0.111 A
ATOM     24  N   UNL     1      10.855  60.511  11.537  1.00  0.00    -0.264 NA
ATOM     25  C   UNL     1      11.944  59.682  11.785  1.00  0.00    +0.121 A
ENDBRANCH  15  20
ENDBRANCH  12  14
ENDBRANCH   6  12
ENDBRANCH   1   5
BRANCH   2  26
ATOM     26  C   UNL     1      15.885  50.553  16.752  1.00  0.00    +0.040 A
ATOM     27  C   UNL     1      14.731  50.079  17.485  1.00  0.00    +0.014 A
ATOM     28  C   UNL     1      17.189  49.917  16.957  1.00  0.00    +0.014 A
ATOM     29  C   UNL     1      14.864  49.004  18.391  1.00  0.00    +0.006 A
ATOM     30  C   UNL     1      17.321  48.819  17.881  1.00  0.00    +0.006 A
ATOM     31  C   UNL     1      16.144  48.351  18.610  1.00  0.00    -0.034 A
BRANCH  31  32
ATOM     32  C   UNL     1      16.188  47.172  19.600  1.00  0.00    +0.120 C
BRANCH  32  33
ATOM     33  N   UNL     1      17.492  46.890  20.270  1.00  0.00    -0.297 NA
ATOM     34  C   UNL     1      17.739  47.874  21.386  1.00  0.00    +0.100 C
ATOM     35  C   UNL     1      17.564  45.457  20.806  1.00  0.00    +0.100 C
ATOM     36  C   UNL     1      19.103  47.611  22.084  1.00  0.00    +0.099 C
ATOM     37  C   UNL     1      18.944  45.172  21.484  1.00  0.00    +0.099 C
ATOM     38  N   UNL     1      19.176  46.183  22.608  1.00  0.00    -0.304 NA
ATOM     39  C   UNL     1      20.446  45.882  23.285  1.00  0.00    +0.105 C
ENDBRANCH  32  33
ENDBRANCH  31  32
ENDBRANCH   2  26
TORSDOF 7
ENDMDL
