MODEL 1
REMARK VINA RESULT:   -12.933      0.000      0.000
REMARK INTER + INTRA:         -18.727
REMARK INTER:                 -18.225
REMARK INTRA:                  -0.502
REMARK UNBOUND:                -0.502
REMARK SMILES Cc1ccc(NC(=O)c2ccc(CN3CCN(C)CC3)cc2)cc1Nc1nccc(-c2cccnc2)n1
REMARK SMILES IDX 6 1 7 2 8 3 5 5 24 6 23 7 2 8 3 9 4 10 1 11 25 12 26 14
REMARK SMILES IDX 30 15 29 16 37 17 28 18 27 19 31 20 33 21 32 22 34 23 35 24
REMARK SMILES IDX 36 25 9 26 22 27 10 28 21 29 11 30 12 31 13 32 14 33 15 34
REMARK SMILES IDX 20 35 16 36 19 37 17 38 18 39
REMARK H PARENT 6 4 25 13
ROOT
ATOM      1  N   UNL     1      16.766  52.003  14.942  1.00  0.00    -0.322 N
ATOM      2  C   UNL     1      15.716  51.682  15.787  1.00  0.00    +0.255 C
ATOM      3  O   UNL     1      14.646  52.270  15.813  1.00  0.00    -0.269 OA
ATOM      4  H   UNL     1      17.632  51.581  15.148  1.00  0.00    +0.170 HD
ENDROOT
BRANCH   1   5
ATOM      5  C   UNL     1      16.747  52.879  13.797  1.00  0.00    +0.043 A
ATOM      6  C   UNL     1      15.777  54.749  12.446  1.00  0.00    +0.046 A
ATOM      7  C   UNL     1      15.751  53.921  13.597  1.00  0.00    +0.052 A
ATOM      8  C   UNL     1      16.817  54.570  11.425  1.00  0.00    -0.027 A
ATOM      9  C   UNL     1      17.798  53.543  11.629  1.00  0.00    +0.008 A
ATOM     10  C   UNL     1      17.757  52.711  12.806  1.00  0.00    +0.026 A
ATOM     11  C   UNL     1      16.905  55.429  10.142  1.00  0.00    +0.046 C
BRANCH   6  12
ATOM     12  N   UNL     1      14.797  55.734  12.305  1.00  0.00    -0.324 N
ATOM     13  H   UNL     1      13.902  55.486  11.975  1.00  0.00    +0.170 HD
BRANCH  12  14
ATOM     14  C   UNL     1      15.069  57.055  12.622  1.00  0.00    +0.227 A
ATOM     15  C   UNL     1      14.282  59.302  12.713  1.00  0.00    +0.077 A
ATOM     16  C   UNL     1      15.546  59.749  13.224  1.00  0.00    +0.049 A
ATOM     17  N   UNL     1      14.092  57.967  12.434  1.00  0.00    -0.213 NA
ATOM     18  C   UNL     1      16.550  58.774  13.413  1.00  0.00    +0.117 A
ATOM     19  N   UNL     1      16.299  57.453  13.112  1.00  0.00    -0.221 NA
BRANCH  15  20
ATOM     20  C   UNL     1      13.122  60.213  12.455  1.00  0.00    +0.019 A
ATOM     21  C   UNL     1      11.969  62.453  12.573  1.00  0.00    +0.021 A
ATOM     22  C   UNL     1      13.115  61.617  12.846  1.00  0.00    +0.013 A
ATOM     23  C   UNL     1      10.836  61.864  11.909  1.00  0.00    +0.111 A
ATOM     24  N   UNL     1      10.855  60.511  11.537  1.00  0.00    -0.264 NA
ATOM     25  C   UNL     1      11.944  59.682  11.785  1.00  0.00    +0.121 A
ENDBRANCH  15  20
ENDBRANCH  12  14
ENDBRANCH   6  12
ENDBRANCH   1   5
BRANCH   2  26
ATOM     26  C   UNL     1      15.885  50.553  16.752  1.00  0.00    +0.040 A
ATOM     27  C   UNL     1      14.731  50.079  17.485  1.00  0.00    +0.014 A
ATOM     28  C   UNL     1      17.189  49.917  16.957  1.00  0.00    +0.014 A
ATOM     29  C   UNL     1      14.864  49.004  18.391  1.00  0.00    +0.006 A
ATOM     30  C   UNL     1      17.321  48.819  17.881  1.00  0.00    +0.006 A
ATOM     31  C   UNL     1      16.144  48.351  18.610  1.00  0.00    -0.034 A
BRANCH  31  32
ATOM     32  C   UNL     1      16.188  47.172  19.600  1.00  0.00    +0.120 C
BRANCH  32  33
ATOM     33  N   UNL     1      17.492  46.890  20.270  1.00  0.00    -0.297 NA
ATOM     34  C   UNL     1      17.739  47.874  21.386  1.00  0.00    +0.100 C
ATOM     35  C   UNL     1      17.564  45.457  20.806  1.00  0.00    +0.100 C
ATOM     36  C   UNL     1      19.103  47.611  22.084  1.00  0.00    +0.099 C
ATOM     37  C   UNL     1      18.944  45.172  21.484  1.00  0.00    +0.099 C
ATOM     38  N   UNL     1      19.176  46.183  22.608  1.00  0.00    -0.304 NA
ATOM     39  C   UNL     1      20.446  45.882  23.285  1.00  0.00    +0.105 C
ENDBRANCH  32  33
ENDBRANCH  31  32
ENDBRANCH   2  26
TORSDOF 7
ENDMDL
MODEL 2
REMARK VINA RESULT:   -11.242      2.991     12.430
REMARK INTER + INTRA:         -16.344
REMARK INTER:                 -15.412
REMARK INTRA:                  -0.932
REMARK UNBOUND:                -0.502
REMARK SMILES Cc1ccc(NC(=O)c2ccc(CN3CCN(C)CC3)cc2)cc1Nc1nccc(-c2cccnc2)n1
REMARK SMILES IDX 6 1 7 2 8 3 5 5 24 6 23 7 2 8 3 9 4 10 1 11 25 12 26 14
REMARK SMILES IDX 30 15 29 16 37 17 28 18 27 19 31 20 33 21 32 22 34 23 35 24
REMARK SMILES IDX 36 25 9 26 22 27 10 28 21 29 11 30 12 31 13 32 14 33 15 34
REMARK SMILES IDX 20 35 16 36 19 37 17 38 18 39
REMARK H PARENT 6 4 25 13
ROOT
ATOM      1  N   UNL     1      16.254  51.949  15.784  1.00  0.00    -0.322 N
ATOM      2  C   UNL     1      15.731  52.188  14.524  1.00  0.00    +0.255 C
ATOM      3  O   UNL     1      15.247  51.330  13.802  1.00  0.00    -0.269 OA
ATOM      4  H   UNL     1      16.781  52.680  16.180  1.00  0.00    +0.170 HD
ENDROOT
BRANCH   1   5
ATOM      5  C   UNL     1      16.123  50.758  16.586  1.00  0.00    +0.043 A
ATOM      6  C   UNL     1      17.031  48.684  17.651  1.00  0.00    +0.046 A
ATOM      7  C   UNL     1      17.222  49.846  16.860  1.00  0.00    +0.052 A
ATOM      8  C   UNL     1      15.711  48.375  18.213  1.00  0.00    -0.027 A
ATOM      9  C   UNL     1      14.631  49.280  17.941  1.00  0.00    +0.008 A
ATOM     10  C   UNL     1      14.842  50.457  17.136  1.00  0.00    +0.026 A
ATOM     11  C   UNL     1      15.424  47.125  19.077  1.00  0.00    +0.046 C
BRANCH   6  12
ATOM     12  N   UNL     1      18.122  47.842  17.882  1.00  0.00    -0.324 N
ATOM     13  H   UNL     1      18.188  46.987  17.400  1.00  0.00    +0.170 HD
BRANCH  12  14
ATOM     14  C   UNL     1      19.113  48.199  18.784  1.00  0.00    +0.227 A
ATOM     15  C   UNL     1      21.119  49.420  19.185  1.00  0.00    +0.077 A
ATOM     16  C   UNL     1      21.161  48.951  20.540  1.00  0.00    +0.049 A
ATOM     17  N   UNL     1      20.091  49.025  18.358  1.00  0.00    -0.213 NA
ATOM     18  C   UNL     1      20.124  48.089  20.962  1.00  0.00    +0.117 A
ATOM     19  N   UNL     1      19.125  47.728  20.084  1.00  0.00    -0.221 NA
BRANCH  15  20
ATOM     20  C   UNL     1      22.145  50.334  18.591  1.00  0.00    +0.019 A
ATOM     21  C   UNL     1      24.349  50.779  17.447  1.00  0.00    +0.021 A
ATOM     22  C   UNL     1      23.391  49.854  18.009  1.00  0.00    +0.013 A
ATOM     23  C   UNL     1      24.039  52.184  17.480  1.00  0.00    +0.111 A
ATOM     24  N   UNL     1      22.835  52.635  18.041  1.00  0.00    -0.264 NA
ATOM     25  C   UNL     1      21.894  51.767  18.588  1.00  0.00    +0.121 A
ENDBRANCH  15  20
ENDBRANCH  12  14
ENDBRANCH   6  12
ENDBRANCH   1   5
BRANCH   2  26
ATOM     26  C   UNL     1      15.764  53.581  13.981  1.00  0.00    +0.040 A
ATOM     27  C   UNL     1      14.520  54.214  13.599  1.00  0.00    +0.014 A
ATOM     28  C   UNL     1      17.026  54.312  13.842  1.00  0.00    +0.014 A
ATOM     29  C   UNL     1      14.526  55.535  13.098  1.00  0.00    +0.006 A
ATOM     30  C   UNL     1      17.028  55.661  13.332  1.00  0.00    +0.006 A
ATOM     31  C   UNL     1      15.762  56.285  12.955  1.00  0.00    -0.034 A
BRANCH  31  32
ATOM     32  C   UNL     1      15.668  57.727  12.422  1.00  0.00    +0.120 C
BRANCH  32  33
ATOM     33  N   UNL     1      14.395  58.467  12.673  1.00  0.00    -0.297 NA
ATOM     34  C   UNL     1      14.682  59.864  13.167  1.00  0.00    +0.100 C
ATOM     35  C   UNL     1      13.507  58.522  11.427  1.00  0.00    +0.100 C
ATOM     36  C   UNL     1      13.369  60.644  13.455  1.00  0.00    +0.099 C
ATOM     37  C   UNL     1      12.170  59.280  11.714  1.00  0.00    +0.099 C
ATOM     38  N   UNL     1      12.484  60.689  12.217  1.00  0.00    -0.304 NA
ATOM     39  C   UNL     1      11.229  61.424  12.433  1.00  0.00    +0.105 C
ENDBRANCH  32  33
ENDBRANCH  31  32
ENDBRANCH   2  26
TORSDOF 7
ENDMDL
MODEL 3
REMARK VINA RESULT:   -10.895      1.550     13.609
REMARK INTER + INTRA:         -15.856
REMARK INTER:                 -14.928
REMARK INTRA:                  -0.928
REMARK UNBOUND:                -0.502
REMARK SMILES Cc1ccc(NC(=O)c2ccc(CN3CCN(C)CC3)cc2)cc1Nc1nccc(-c2cccnc2)n1
REMARK SMILES IDX 6 1 7 2 8 3 5 5 24 6 23 7 2 8 3 9 4 10 1 11 25 12 26 14
REMARK SMILES IDX 30 15 29 16 37 17 28 18 27 19 31 20 33 21 32 22 34 23 35 24
REMARK SMILES IDX 36 25 9 26 22 27 10 28 21 29 11 30 12 31 13 32 14 33 15 34
REMARK SMILES IDX 20 35 16 36 19 37 17 38 18 39
REMARK H PARENT 6 4 25 13
ROOT
ATOM      1  N   UNL     1      16.256  51.967  15.752  1.00  0.00    -0.322 N
ATOM      2  C   UNL     1      15.739  52.223  14.492  1.00  0.00    +0.255 C
ATOM      3  O   UNL     1      15.262  51.373  13.755  1.00  0.00    -0.269 OA
ATOM      4  H   UNL     1      16.777  52.696  16.162  1.00  0.00    +0.170 HD
ENDROOT
BRANCH   1   5
ATOM      5  C   UNL     1      16.125  50.764  16.536  1.00  0.00    +0.043 A
ATOM      6  C   UNL     1      17.009  48.626  17.489  1.00  0.00    +0.046 A
ATOM      7  C   UNL     1      17.197  49.797  16.712  1.00  0.00    +0.052 A
ATOM      8  C   UNL     1      15.718  48.363  18.136  1.00  0.00    -0.027 A
ATOM      9  C   UNL     1      14.664  49.322  17.961  1.00  0.00    +0.008 A
ATOM     10  C   UNL     1      14.874  50.508  17.168  1.00  0.00    +0.026 A
ATOM     11  C   UNL     1      15.435  47.106  18.991  1.00  0.00    +0.046 C
BRANCH   6  12
ATOM     12  N   UNL     1      18.073  47.731  17.624  1.00  0.00    -0.324 N
ATOM     13  H   UNL     1      18.201  47.023  16.952  1.00  0.00    +0.170 HD
BRANCH  12  14
ATOM     14  C   UNL     1      18.949  47.829  18.694  1.00  0.00    +0.227 A
ATOM     15  C   UNL     1      19.670  46.948  20.786  1.00  0.00    +0.077 A
ATOM     16  C   UNL     1      20.671  47.969  20.898  1.00  0.00    +0.049 A
ATOM     17  N   UNL     1      18.846  46.917  19.683  1.00  0.00    -0.213 NA
ATOM     18  C   UNL     1      20.759  48.910  19.848  1.00  0.00    +0.117 A
ATOM     19  N   UNL     1      19.903  48.827  18.771  1.00  0.00    -0.221 NA
BRANCH  15  20
ATOM     20  C   UNL     1      19.451  45.883  21.816  1.00  0.00    +0.019 A
ATOM     21  C   UNL     1      18.469  43.695  22.596  1.00  0.00    +0.021 A
ATOM     22  C   UNL     1      18.648  44.693  21.568  1.00  0.00    +0.013 A
ATOM     23  C   UNL     1      19.101  43.908  23.872  1.00  0.00    +0.111 A
ATOM     24  N   UNL     1      19.874  45.057  24.099  1.00  0.00    -0.264 NA
ATOM     25  C   UNL     1      20.065  46.034  23.127  1.00  0.00    +0.121 A
ENDBRANCH  15  20
ENDBRANCH  12  14
ENDBRANCH   6  12
ENDBRANCH   1   5
BRANCH   2  26
ATOM     26  C   UNL     1      15.768  53.624  13.971  1.00  0.00    +0.040 A
ATOM     27  C   UNL     1      14.525  54.250  13.575  1.00  0.00    +0.014 A
ATOM     28  C   UNL     1      17.025  54.369  13.866  1.00  0.00    +0.014 A
ATOM     29  C   UNL     1      14.528  55.579  13.093  1.00  0.00    +0.006 A
ATOM     30  C   UNL     1      17.024  55.725  13.375  1.00  0.00    +0.006 A
ATOM     31  C   UNL     1      15.759  56.343  12.984  1.00  0.00    -0.034 A
BRANCH  31  32
ATOM     32  C   UNL     1      15.660  57.791  12.470  1.00  0.00    +0.120 C
BRANCH  32  33
ATOM     33  N   UNL     1      14.374  58.514  12.704  1.00  0.00    -0.297 NA
ATOM     34  C   UNL     1      14.635  59.905  13.226  1.00  0.00    +0.100 C
ATOM     35  C   UNL     1      13.514  58.579  11.439  1.00  0.00    +0.100 C
ATOM     36  C   UNL     1      13.308  60.668  13.496  1.00  0.00    +0.099 C
ATOM     37  C   UNL     1      12.162  59.318  11.707  1.00  0.00    +0.099 C
ATOM     38  N   UNL     1      12.450  60.723  12.240  1.00  0.00    -0.304 NA
ATOM     39  C   UNL     1      11.183  61.441  12.438  1.00  0.00    +0.105 C
ENDBRANCH  32  33
ENDBRANCH  31  32
ENDBRANCH   2  26
TORSDOF 7
ENDMDL
MODEL 4
REMARK VINA RESULT:   -10.527      2.288     13.481
REMARK INTER + INTRA:         -15.336
REMARK INTER:                 -14.873
REMARK INTRA:                  -0.463
REMARK UNBOUND:                -0.502
REMARK SMILES Cc1ccc(NC(=O)c2ccc(CN3CCN(C)CC3)cc2)cc1Nc1nccc(-c2cccnc2)n1
REMARK SMILES IDX 6 1 7 2 8 3 5 5 24 6 23 7 2 8 3 9 4 10 1 11 25 12 26 14
REMARK SMILES IDX 30 15 29 16 37 17 28 18 27 19 31 20 33 21 32 22 34 23 35 24
REMARK SMILES IDX 36 25 9 26 22 27 10 28 21 29 11 30 12 31 13 32 14 33 15 34
REMARK SMILES IDX 20 35 16 36 19 37 17 38 18 39
REMARK H PARENT 6 4 25 13
ROOT
ATOM      1  N   UNL     1      14.702  56.685  12.825  1.00  0.00    -0.322 N
ATOM      2  C   UNL     1      14.984  58.039  12.903  1.00  0.00    +0.255 C
ATOM      3  O   UNL     1      16.086  58.502  13.159  1.00  0.00    -0.269 OA
ATOM      4  H   UNL     1      13.748  56.443  12.800  1.00  0.00    +0.170 HD
ENDROOT
BRANCH   1   5
ATOM      5  C   UNL     1      15.634  55.587  12.776  1.00  0.00    +0.043 A
ATOM      6  C   UNL     1      16.786  53.603  13.777  1.00  0.00    +0.046 A
ATOM      7  C   UNL     1      15.848  54.662  13.879  1.00  0.00    +0.052 A
ATOM      8  C   UNL     1      17.567  53.418  12.547  1.00  0.00    -0.027 A
ATOM      9  C   UNL     1      17.349  54.331  11.462  1.00  0.00    +0.008 A
ATOM     10  C   UNL     1      16.391  55.402  11.583  1.00  0.00    +0.026 A
ATOM     11  C   UNL     1      18.611  52.292  12.365  1.00  0.00    +0.046 C
BRANCH   6  12
ATOM     12  N   UNL     1      16.951  52.745  14.866  1.00  0.00    -0.324 N
ATOM     13  H   UNL     1      17.712  52.875  15.477  1.00  0.00    +0.170 HD
BRANCH  12  14
ATOM     14  C   UNL     1      16.056  51.712  15.096  1.00  0.00    +0.227 A
ATOM     15  C   UNL     1      15.277  50.023  16.586  1.00  0.00    +0.077 A
ATOM     16  C   UNL     1      14.294  49.601  15.631  1.00  0.00    +0.049 A
ATOM     17  N   UNL     1      16.122  51.068  16.280  1.00  0.00    -0.213 NA
ATOM     18  C   UNL     1      14.245  50.293  14.400  1.00  0.00    +0.117 A
ATOM     19  N   UNL     1      15.120  51.328  14.153  1.00  0.00    -0.221 NA
BRANCH  15  20
ATOM     20  C   UNL     1      15.455  49.389  17.930  1.00  0.00    +0.019 A
ATOM     21  C   UNL     1      14.592  48.629  20.175  1.00  0.00    +0.021 A
ATOM     22  C   UNL     1      14.367  49.250  18.890  1.00  0.00    +0.013 A
ATOM     23  C   UNL     1      15.915  48.153  20.481  1.00  0.00    +0.111 A
ATOM     24  N   UNL     1      16.954  48.290  19.548  1.00  0.00    -0.264 NA
ATOM     25  C   UNL     1      16.767  48.883  18.303  1.00  0.00    +0.121 A
ENDBRANCH  15  20
ENDBRANCH  12  14
ENDBRANCH   6  12
ENDBRANCH   1   5
BRANCH   2  26
ATOM     26  C   UNL     1      13.880  59.021  12.678  1.00  0.00    +0.040 A
ATOM     27  C   UNL     1      13.752  60.150  13.575  1.00  0.00    +0.014 A
ATOM     28  C   UNL     1      12.940  58.866  11.566  1.00  0.00    +0.014 A
ATOM     29  C   UNL     1      12.726  61.099  13.373  1.00  0.00    +0.006 A
ATOM     30  C   UNL     1      11.894  59.837  11.361  1.00  0.00    +0.006 A
ATOM     31  C   UNL     1      11.783  60.972  12.274  1.00  0.00    -0.034 A
BRANCH  31  32
ATOM     32  C   UNL     1      10.711  62.068  12.119  1.00  0.00    +0.120 C
BRANCH  32  33
ATOM     33  N   UNL     1      11.170  63.487  12.185  1.00  0.00    -0.297 NA
ATOM     34  C   UNL     1      12.600  63.605  11.718  1.00  0.00    +0.100 C
ATOM     35  C   UNL     1      10.271  64.420  11.369  1.00  0.00    +0.100 C
ATOM     36  C   UNL     1      13.104  65.073  11.799  1.00  0.00    +0.099 C
ATOM     37  C   UNL     1      10.752  65.904  11.468  1.00  0.00    +0.099 C
ATOM     38  N   UNL     1      12.204  65.999  10.994  1.00  0.00    -0.304 NA
ATOM     39  C   UNL     1      12.641  67.403  11.031  1.00  0.00    +0.105 C
ENDBRANCH  32  33
ENDBRANCH  31  32
ENDBRANCH   2  26
TORSDOF 7
ENDMDL
MODEL 5
REMARK VINA RESULT:   -10.514      3.420     12.340
REMARK INTER + INTRA:         -15.318
REMARK INTER:                 -15.097
REMARK INTRA:                  -0.221
REMARK UNBOUND:                -0.502
REMARK SMILES Cc1ccc(NC(=O)c2ccc(CN3CCN(C)CC3)cc2)cc1Nc1nccc(-c2cccnc2)n1
REMARK SMILES IDX 6 1 7 2 8 3 5 5 24 6 23 7 2 8 3 9 4 10 1 11 25 12 26 14
REMARK SMILES IDX 30 15 29 16 37 17 28 18 27 19 31 20 33 21 32 22 34 23 35 24
REMARK SMILES IDX 36 25 9 26 22 27 10 28 21 29 11 30 12 31 13 32 14 33 15 34
REMARK SMILES IDX 20 35 16 36 19 37 17 38 18 39
REMARK H PARENT 6 4 25 13
ROOT
ATOM      1  N   UNL     1      16.688  50.572  15.927  1.00  0.00    -0.322 N
ATOM      2  C   UNL     1      15.774  51.589  15.706  1.00  0.00    +0.255 C
ATOM      3  O   UNL     1      14.682  51.668  16.250  1.00  0.00    -0.269 OA
ATOM      4  H   UNL     1      17.440  50.522  15.293  1.00  0.00    +0.170 HD
ENDROOT
BRANCH   1   5
ATOM      5  C   UNL     1      16.672  49.578  16.971  1.00  0.00    +0.043 A
ATOM      6  C   UNL     1      17.691  48.389  18.923  1.00  0.00    +0.046 A
ATOM      7  C   UNL     1      17.758  49.390  17.920  1.00  0.00    +0.052 A
ATOM      8  C   UNL     1      16.516  47.514  19.022  1.00  0.00    -0.027 A
ATOM      9  C   UNL     1      15.448  47.706  18.084  1.00  0.00    +0.008 A
ATOM     10  C   UNL     1      15.532  48.729  17.072  1.00  0.00    +0.026 A
ATOM     11  C   UNL     1      16.375  46.397  20.082  1.00  0.00    +0.046 C
BRANCH   6  12
ATOM     12  N   UNL     1      18.762  48.253  19.809  1.00  0.00    -0.324 N
ATOM     13  H   UNL     1      18.616  48.387  20.773  1.00  0.00    +0.170 HD
BRANCH  12  14
ATOM     14  C   UNL     1      20.028  47.931  19.345  1.00  0.00    +0.227 A
ATOM     15  C   UNL     1      22.191  48.702  18.711  1.00  0.00    +0.077 A
ATOM     16  C   UNL     1      22.602  47.364  18.396  1.00  0.00    +0.049 A
ATOM     17  N   UNL     1      20.916  48.933  19.177  1.00  0.00    -0.213 NA
ATOM     18  C   UNL     1      21.654  46.333  18.583  1.00  0.00    +0.117 A
ATOM     19  N   UNL     1      20.392  46.630  19.050  1.00  0.00    -0.221 NA
BRANCH  15  20
ATOM     20  C   UNL     1      23.078  49.899  18.563  1.00  0.00    +0.019 A
ATOM     21  C   UNL     1      24.658  51.363  17.249  1.00  0.00    +0.021 A
ATOM     22  C   UNL     1      23.815  50.193  17.340  1.00  0.00    +0.013 A
ATOM     23  C   UNL     1      24.752  52.227  18.396  1.00  0.00    +0.111 A
ATOM     24  N   UNL     1      24.036  51.935  19.567  1.00  0.00    -0.264 NA
ATOM     25  C   UNL     1      23.216  50.817  19.683  1.00  0.00    +0.121 A
ENDBRANCH  15  20
ENDBRANCH  12  14
ENDBRANCH   6  12
ENDBRANCH   1   5
BRANCH   2  26
ATOM     26  C   UNL     1      16.115  52.668  14.729  1.00  0.00    +0.040 A
ATOM     27  C   UNL     1      16.050  54.049  15.158  1.00  0.00    +0.014 A
ATOM     28  C   UNL     1      16.524  52.350  13.358  1.00  0.00    +0.014 A
ATOM     29  C   UNL     1      16.383  55.084  14.256  1.00  0.00    +0.006 A
ATOM     30  C   UNL     1      16.864  53.408  12.441  1.00  0.00    +0.006 A
ATOM     31  C   UNL     1      16.796  54.796  12.892  1.00  0.00    -0.034 A
BRANCH  31  32
ATOM     32  C   UNL     1      17.162  55.988  11.988  1.00  0.00    +0.120 C
BRANCH  32  33
ATOM     33  N   UNL     1      16.259  57.177  12.025  1.00  0.00    -0.297 NA
ATOM     34  C   UNL     1      14.819  56.745  12.150  1.00  0.00    +0.100 C
ATOM     35  C   UNL     1      16.620  58.139  13.161  1.00  0.00    +0.100 C
ATOM     36  C   UNL     1      13.859  57.968  12.169  1.00  0.00    +0.099 C
ATOM     37  C   UNL     1      15.680  59.387  13.170  1.00  0.00    +0.099 C
ATOM     38  N   UNL     1      14.226  58.926  13.293  1.00  0.00    -0.304 NA
ATOM     39  C   UNL     1      13.343  60.100  13.361  1.00  0.00    +0.105 C
ENDBRANCH  32  33
ENDBRANCH  31  32
ENDBRANCH   2  26
TORSDOF 7
ENDMDL
MODEL 6
REMARK VINA RESULT:   -10.300      2.005     13.757
REMARK INTER + INTRA:         -15.016
REMARK INTER:                 -14.846
REMARK INTRA:                  -0.171
REMARK UNBOUND:                -0.502
REMARK SMILES Cc1ccc(NC(=O)c2ccc(CN3CCN(C)CC3)cc2)cc1Nc1nccc(-c2cccnc2)n1
REMARK SMILES IDX 6 1 7 2 8 3 5 5 24 6 23 7 2 8 3 9 4 10 1 11 25 12 26 14
REMARK SMILES IDX 30 15 29 16 37 17 28 18 27 19 31 20 33 21 32 22 34 23 35 24
REMARK SMILES IDX 36 25 9 26 22 27 10 28 21 29 11 30 12 31 13 32 14 33 15 34
REMARK SMILES IDX 20 35 16 36 19 37 17 38 18 39
REMARK H PARENT 6 4 25 13
ROOT
ATOM      1  N   UNL     1      16.571  50.747  15.814  1.00  0.00    -0.322 N
ATOM      2  C   UNL     1      15.708  51.820  15.662  1.00  0.00    +0.255 C
ATOM      3  O   UNL     1      14.670  51.967  16.291  1.00  0.00    -0.269 OA
ATOM      4  H   UNL     1      17.265  50.649  15.123  1.00  0.00    +0.170 HD
ENDROOT
BRANCH   1   5
ATOM      5  C   UNL     1      16.576  49.756  16.861  1.00  0.00    +0.043 A
ATOM      6  C   UNL     1      17.599  48.623  18.844  1.00  0.00    +0.046 A
ATOM      7  C   UNL     1      17.644  49.624  17.840  1.00  0.00    +0.052 A
ATOM      8  C   UNL     1      16.467  47.692  18.915  1.00  0.00    -0.027 A
ATOM      9  C   UNL     1      15.415  47.828  17.948  1.00  0.00    +0.008 A
ATOM     10  C   UNL     1      15.476  48.852  16.935  1.00  0.00    +0.026 A
ATOM     11  C   UNL     1      16.352  46.571  19.975  1.00  0.00    +0.046 C
BRANCH   6  12
ATOM     12  N   UNL     1      18.651  48.542  19.759  1.00  0.00    -0.324 N
ATOM     13  H   UNL     1      18.659  49.134  20.546  1.00  0.00    +0.170 HD
BRANCH  12  14
ATOM     14  C   UNL     1      19.685  47.637  19.572  1.00  0.00    +0.227 A
ATOM     15  C   UNL     1      20.634  45.527  20.139  1.00  0.00    +0.077 A
ATOM     16  C   UNL     1      21.745  45.765  19.262  1.00  0.00    +0.049 A
ATOM     17  N   UNL     1      19.643  46.476  20.257  1.00  0.00    -0.213 NA
ATOM     18  C   UNL     1      21.763  46.988  18.555  1.00  0.00    +0.117 A
ATOM     19  N   UNL     1      20.742  47.898  18.720  1.00  0.00    -0.221 NA
BRANCH  15  20
ATOM     20  C   UNL     1      20.474  44.284  20.957  1.00  0.00    +0.019 A
ATOM     21  C   UNL     1      19.167  42.269  21.731  1.00  0.00    +0.021 A
ATOM     22  C   UNL     1      19.271  43.461  20.921  1.00  0.00    +0.013 A
ATOM     23  C   UNL     1      20.280  41.918  22.573  1.00  0.00    +0.111 A
ATOM     24  N   UNL     1      21.434  42.716  22.598  1.00  0.00    -0.264 NA
ATOM     25  C   UNL     1      21.563  43.868  21.829  1.00  0.00    +0.121 A
ENDBRANCH  15  20
ENDBRANCH  12  14
ENDBRANCH   6  12
ENDBRANCH   1   5
BRANCH   2  26
ATOM     26  C   UNL     1      16.037  52.875  14.655  1.00  0.00    +0.040 A
ATOM     27  C   UNL     1      14.961  53.495  13.912  1.00  0.00    +0.014 A
ATOM     28  C   UNL     1      17.421  53.295  14.420  1.00  0.00    +0.014 A
ATOM     29  C   UNL     1      15.248  54.505  12.967  1.00  0.00    +0.006 A
ATOM     30  C   UNL     1      17.710  54.327  13.456  1.00  0.00    +0.006 A
ATOM     31  C   UNL     1      16.611  54.945  12.718  1.00  0.00    -0.034 A
BRANCH  31  32
ATOM     32  C   UNL     1      16.824  56.068  11.685  1.00  0.00    +0.120 C
BRANCH  32  33
ATOM     33  N   UNL     1      16.068  57.339  11.892  1.00  0.00    -0.297 NA
ATOM     34  C   UNL     1      14.583  57.076  11.908  1.00  0.00    +0.100 C
ATOM     35  C   UNL     1      16.490  58.056  13.178  1.00  0.00    +0.100 C
ATOM     36  C   UNL     1      13.776  58.390  12.101  1.00  0.00    +0.099 C
ATOM     37  C   UNL     1      15.705  59.395  13.366  1.00  0.00    +0.099 C
ATOM     38  N   UNL     1      14.203  59.106  13.375  1.00  0.00    -0.304 NA
ATOM     39  C   UNL     1      13.464  60.355  13.610  1.00  0.00    +0.105 C
ENDBRANCH  32  33
ENDBRANCH  31  32
ENDBRANCH   2  26
TORSDOF 7
ENDMDL
MODEL 7
REMARK VINA RESULT:   -10.247      2.392     12.548
REMARK INTER + INTRA:         -14.942
REMARK INTER:                 -14.785
REMARK INTRA:                  -0.157
REMARK UNBOUND:                -0.502
REMARK SMILES Cc1ccc(NC(=O)c2ccc(CN3CCN(C)CC3)cc2)cc1Nc1nccc(-c2cccnc2)n1
REMARK SMILES IDX 6 1 7 2 8 3 5 5 24 6 23 7 2 8 3 9 4 10 1 11 25 12 26 14
REMARK SMILES IDX 30 15 29 16 37 17 28 18 27 19 31 20 33 21 32 22 34 23 35 24
REMARK SMILES IDX 36 25 9 26 22 27 10 28 21 29 11 30 12 31 13 32 14 33 15 34
REMARK SMILES IDX 20 35 16 36 19 37 17 38 18 39
REMARK H PARENT 6 4 25 13
ROOT
ATOM      1  N   UNL     1      14.796  51.342  16.375  1.00  0.00    -0.322 N
ATOM      2  C   UNL     1      15.986  51.706  15.767  1.00  0.00    +0.255 C
ATOM      3  O   UNL     1      17.078  51.231  16.044  1.00  0.00    -0.269 OA
ATOM      4  H   UNL     1      14.024  51.927  16.198  1.00  0.00    +0.170 HD
ENDROOT
BRANCH   1   5
ATOM      5  C   UNL     1      14.550  50.212  17.236  1.00  0.00    +0.043 A
ATOM      6  C   UNL     1      15.234  48.085  18.361  1.00  0.00    +0.046 A
ATOM      7  C   UNL     1      15.536  49.179  17.511  1.00  0.00    +0.052 A
ATOM      8  C   UNL     1      13.910  47.971  18.985  1.00  0.00    -0.027 A
ATOM      9  C   UNL     1      12.942  48.994  18.712  1.00  0.00    +0.008 A
ATOM     10  C   UNL     1      13.266  50.101  17.846  1.00  0.00    +0.026 A
ATOM     11  C   UNL     1      13.506  46.804  19.916  1.00  0.00    +0.046 C
BRANCH   6  12
ATOM     12  N   UNL     1      16.219  47.121  18.591  1.00  0.00    -0.324 N
ATOM     13  H   UNL     1      16.201  46.276  18.085  1.00  0.00    +0.170 HD
BRANCH  12  14
ATOM     14  C   UNL     1      17.221  47.341  19.523  1.00  0.00    +0.227 A
ATOM     15  C   UNL     1      19.513  47.850  19.926  1.00  0.00    +0.077 A
ATOM     16  C   UNL     1      19.305  47.780  21.343  1.00  0.00    +0.049 A
ATOM     17  N   UNL     1      18.458  47.629  19.069  1.00  0.00    -0.213 NA
ATOM     18  C   UNL     1      18.000  47.478  21.793  1.00  0.00    +0.117 A
ATOM     19  N   UNL     1      16.987  47.263  20.884  1.00  0.00    -0.221 NA
BRANCH  15  20
ATOM     20  C   UNL     1      20.837  48.156  19.296  1.00  0.00    +0.019 A
ATOM     21  C   UNL     1      22.637  49.752  18.539  1.00  0.00    +0.021 A
ATOM     22  C   UNL     1      21.352  49.512  19.154  1.00  0.00    +0.013 A
ATOM     23  C   UNL     1      23.391  48.620  18.068  1.00  0.00    +0.111 A
ATOM     24  N   UNL     1      22.885  47.320  18.211  1.00  0.00    -0.264 NA
ATOM     25  C   UNL     1      21.652  47.057  18.801  1.00  0.00    +0.121 A
ENDBRANCH  15  20
ENDBRANCH  12  14
ENDBRANCH   6  12
ENDBRANCH   1   5
BRANCH   2  26
ATOM     26  C   UNL     1      15.963  52.760  14.707  1.00  0.00    +0.040 A
ATOM     27  C   UNL     1      17.041  52.807  13.742  1.00  0.00    +0.014 A
ATOM     28  C   UNL     1      14.869  53.730  14.624  1.00  0.00    +0.014 A
ATOM     29  C   UNL     1      17.032  53.785  12.723  1.00  0.00    +0.006 A
ATOM     30  C   UNL     1      14.862  54.725  13.581  1.00  0.00    +0.006 A
ATOM     31  C   UNL     1      15.956  54.756  12.614  1.00  0.00    -0.034 A
BRANCH  31  32
ATOM     32  C   UNL     1      16.020  55.770  11.456  1.00  0.00    +0.120 C
BRANCH  32  33
ATOM     33  N   UNL     1      15.459  57.131  11.707  1.00  0.00    -0.297 NA
ATOM     34  C   UNL     1      13.969  57.057  11.933  1.00  0.00    +0.100 C
ATOM     35  C   UNL     1      16.138  57.823  12.892  1.00  0.00    +0.100 C
ATOM     36  C   UNL     1      13.362  58.467  12.176  1.00  0.00    +0.099 C
ATOM     37  C   UNL     1      15.555  59.254  13.126  1.00  0.00    +0.099 C
ATOM     38  N   UNL     1      14.045  59.156  13.349  1.00  0.00    -0.304 NA
ATOM     39  C   UNL     1      13.502  60.494  13.627  1.00  0.00    +0.105 C
ENDBRANCH  32  33
ENDBRANCH  31  32
ENDBRANCH   2  26
TORSDOF 7
ENDMDL
MODEL 8
REMARK VINA RESULT:   -10.173      1.880     13.876
REMARK INTER + INTRA:         -14.839
REMARK INTER:                 -15.076
REMARK INTRA:                   0.238
REMARK UNBOUND:                -0.502
REMARK SMILES Cc1ccc(NC(=O)c2ccc(CN3CCN(C)CC3)cc2)cc1Nc1nccc(-c2cccnc2)n1
REMARK SMILES IDX 6 1 7 2 8 3 5 5 24 6 23 7 2 8 3 9 4 10 1 11 25 12 26 14
REMARK SMILES IDX 30 15 29 16 37 17 28 18 27 19 31 20 33 21 32 22 34 23 35 24
REMARK SMILES IDX 36 25 9 26 22 27 10 28 21 29 11 30 12 31 13 32 14 33 15 34
REMARK SMILES IDX 20 35 16 36 19 37 17 38 18 39
REMARK H PARENT 6 4 25 13
ROOT
ATOM      1  N   UNL     1      16.558  50.668  15.919  1.00  0.00    -0.322 N
ATOM      2  C   UNL     1      15.570  51.630  15.787  1.00  0.00    +0.255 C
ATOM      3  O   UNL     1      14.528  51.642  16.424  1.00  0.00    -0.269 OA
ATOM      4  H   UNL     1      17.254  50.664  15.222  1.00  0.00    +0.170 HD
ENDROOT
BRANCH   1   5
ATOM      5  C   UNL     1      16.691  49.670  16.951  1.00  0.00    +0.043 A
ATOM      6  C   UNL     1      17.899  48.597  18.862  1.00  0.00    +0.046 A
ATOM      7  C   UNL     1      17.817  49.607  17.870  1.00  0.00    +0.052 A
ATOM      8  C   UNL     1      16.842  47.586  18.982  1.00  0.00    -0.027 A
ATOM      9  C   UNL     1      15.732  47.654  18.075  1.00  0.00    +0.008 A
ATOM     10  C   UNL     1      15.664  48.689  17.073  1.00  0.00    +0.026 A
ATOM     11  C   UNL     1      16.865  46.451  20.032  1.00  0.00    +0.046 C
BRANCH   6  12
ATOM     12  N   UNL     1      19.003  48.584  19.718  1.00  0.00    -0.324 N
ATOM     13  H   UNL     1      19.120  49.311  20.372  1.00  0.00    +0.170 HD
BRANCH  12  14
ATOM     14  C   UNL     1      19.934  47.559  19.658  1.00  0.00    +0.227 A
ATOM     15  C   UNL     1      20.997  45.744  20.776  1.00  0.00    +0.077 A
ATOM     16  C   UNL     1      21.808  45.477  19.623  1.00  0.00    +0.049 A
ATOM     17  N   UNL     1      20.087  46.777  20.747  1.00  0.00    -0.213 NA
ATOM     18  C   UNL     1      21.626  46.309  18.496  1.00  0.00    +0.117 A
ATOM     19  N   UNL     1      20.700  47.329  18.530  1.00  0.00    -0.221 NA
BRANCH  15  20
ATOM     20  C   UNL     1      21.075  44.954  22.046  1.00  0.00    +0.019 A
ATOM     21  C   UNL     1      21.681  42.888  23.360  1.00  0.00    +0.021 A
ATOM     22  C   UNL     1      21.628  43.607  22.108  1.00  0.00    +0.013 A
ATOM     23  C   UNL     1      21.172  43.535  24.540  1.00  0.00    +0.111 A
ATOM     24  N   UNL     1      20.643  44.832  24.469  1.00  0.00    -0.264 NA
ATOM     25  C   UNL     1      20.581  45.550  23.278  1.00  0.00    +0.121 A
ENDBRANCH  15  20
ENDBRANCH  12  14
ENDBRANCH   6  12
ENDBRANCH   1   5
BRANCH   2  26
ATOM     26  C   UNL     1      15.762  52.731  14.794  1.00  0.00    +0.040 A
ATOM     27  C   UNL     1      16.919  52.696  13.925  1.00  0.00    +0.014 A
ATOM     28  C   UNL     1      14.799  53.828  14.680  1.00  0.00    +0.014 A
ATOM     29  C   UNL     1      17.113  53.718  12.968  1.00  0.00    +0.006 A
ATOM     30  C   UNL     1      14.999  54.868  13.702  1.00  0.00    +0.006 A
ATOM     31  C   UNL     1      16.170  54.815  12.830  1.00  0.00    -0.034 A
BRANCH  31  32
ATOM     32  C   UNL     1      16.452  55.870  11.744  1.00  0.00    +0.120 C
BRANCH  32  33
ATOM     33  N   UNL     1      15.771  57.192  11.881  1.00  0.00    -0.297 NA
ATOM     34  C   UNL     1      14.278  57.009  12.004  1.00  0.00    +0.100 C
ATOM     35  C   UNL     1      16.303  57.992  13.074  1.00  0.00    +0.100 C
ATOM     36  C   UNL     1      13.548  58.375  12.127  1.00  0.00    +0.099 C
ATOM     37  C   UNL     1      15.595  59.381  13.189  1.00  0.00    +0.099 C
ATOM     38  N   UNL     1      14.085  59.172  13.308  1.00  0.00    -0.304 NA
ATOM     39  C   UNL     1      13.421  60.474  13.474  1.00  0.00    +0.105 C
ENDBRANCH  32  33
ENDBRANCH  31  32
ENDBRANCH   2  26
TORSDOF 7
ENDMDL
