MODEL 1
REMARK VINA RESULT:    -7.143      0.000      0.000
REMARK INTER + INTRA:         -14.946
REMARK INTER:                 -13.615
REMARK INTRA:                  -1.330
REMARK UNBOUND:                -1.330
REMARK SMILES CCCCCCCC/C=C\CCCCCCCC(=O)O
REMARK SMILES IDX 11 1 12 2 13 3 14 4 15 5 16 6 17 7 18 8 19 9 20 10 10 12
REMARK SMILES IDX 9 13 8 14 7 15 6 16 5 17 4 18 3 19 2 20 1 21
REMARK H PARENT 20 11
ROOT
ATOM      1  C   UNL     1      15.076  60.075  12.837  1.00  0.00    +0.027 C
ENDROOT
BRANCH   1   2
ATOM      2  C   UNL     1      13.747  60.174  13.591  1.00  0.00    +0.004 C
BRANCH   2   3
ATOM      3  C   UNL     1      12.619  60.764  12.740  1.00  0.00    +0.000 C
BRANCH   3   4
ATOM      4  C   UNL     1      12.240  62.168  13.219  1.00  0.00    +0.000 C
BRANCH   4   5
ATOM      5  C   UNL     1      12.413  63.199  12.103  1.00  0.00    +0.001 C
BRANCH   5   6
ATOM      6  C   UNL     1      12.927  64.562  12.582  1.00  0.00    +0.012 C
BRANCH   6   7
ATOM      7  C   UNL     1      11.837  65.498  13.107  1.00  0.00    +0.122 C
BRANCH   7   8
ATOM      8  C   UNL     1      12.147  66.081  14.459  1.00  0.00    +0.303 C
ATOM      9  O   UNL     1      12.535  67.209  14.711  1.00  0.00    -0.252 OA
BRANCH   8  10
ATOM     10  O   UNL     1      11.907  65.204  15.453  1.00  0.00    -0.481 OA
ATOM     11  H   UNL     1      11.080  65.533  15.865  1.00  0.00    +0.296 HD
ENDBRANCH   8  10
ENDBRANCH   7   8
ENDBRANCH   6   7
ENDBRANCH   5   6
ENDBRANCH   4   5
ENDBRANCH   3   4
ENDBRANCH   2   3
ENDBRANCH   1   2
BRANCH   1  12
ATOM     12  C   UNL     1      16.053  59.138  13.492  1.00  0.00    -0.031 C
ATOM     13  C   UNL     1      16.367  57.889  13.109  1.00  0.00    -0.031 C
BRANCH  13  14
ATOM     14  C   UNL     1      15.779  57.110  11.967  1.00  0.00    +0.027 C
BRANCH  14  15
ATOM     15  C   UNL     1      14.278  56.885  12.167  1.00  0.00    +0.004 C
BRANCH  15  16
ATOM     16  C   UNL     1      13.958  55.697  13.079  1.00  0.00    +0.000 C
BRANCH  16  17
ATOM     17  C   UNL     1      14.986  54.568  12.990  1.00  0.00    +0.000 C
BRANCH  17  18
ATOM     18  C   UNL     1      15.089  53.807  14.315  1.00  0.00    -0.000 C
BRANCH  18  19
ATOM     19  C   UNL     1      16.507  53.876  14.885  1.00  0.00    -0.000 C
BRANCH  19  20
ATOM     20  C   UNL     1      17.505  54.561  13.949  1.00  0.00    -0.003 C
ATOM     21  C   UNL     1      18.574  55.359  14.680  1.00  0.00    +0.004 C
ENDBRANCH  19  20
ENDBRANCH  18  19
ENDBRANCH  17  18
ENDBRANCH  16  17
ENDBRANCH  15  16
ENDBRANCH  14  15
ENDBRANCH  13  14
ENDBRANCH   1  12
TORSDOF 16
ENDMDL
MODEL 2
REMARK VINA RESULT:    -7.141      2.105      3.529
REMARK INTER + INTRA:         -14.942
REMARK INTER:                 -12.939
REMARK INTRA:                  -2.003
REMARK UNBOUND:                -1.330
REMARK SMILES CCCCCCCC/C=C\CCCCCCCC(=O)O
REMARK SMILES IDX 11 1 12 2 13 3 14 4 15 5 16 6 17 7 18 8 19 9 20 10 10 12
REMARK SMILES IDX 9 13 8 14 7 15 6 16 5 17 4 18 3 19 2 20 1 21
REMARK H PARENT 20 11
ROOT
ATOM      1  C   UNL     1      16.118  57.890  12.744  1.00  0.00    +0.027 C
ENDROOT
BRANCH   1   2
ATOM      2  C   UNL     1      16.013  59.139  13.623  1.00  0.00    +0.004 C
BRANCH   2   3
ATOM      3  C   UNL     1      14.669  59.858  13.483  1.00  0.00    +0.000 C
BRANCH   3   4
ATOM      4  C   UNL     1      14.038  59.592  12.114  1.00  0.00    +0.000 C
BRANCH   4   5
ATOM      5  C   UNL     1      12.549  59.271  12.243  1.00  0.00    +0.001 C
BRANCH   5   6
ATOM      6  C   UNL     1      11.638  60.157  11.386  1.00  0.00    +0.012 C
BRANCH   6   7
ATOM      7  C   UNL     1      10.913  61.256  12.165  1.00  0.00    +0.122 C
BRANCH   7   8
ATOM      8  C   UNL     1      11.840  62.278  12.766  1.00  0.00    +0.303 C
ATOM      9  O   UNL     1      12.112  62.434  13.944  1.00  0.00    -0.252 OA
BRANCH   8  10
ATOM     10  O   UNL     1      12.421  63.046  11.824  1.00  0.00    -0.481 OA
ATOM     11  H   UNL     1      13.375  62.831  11.899  1.00  0.00    +0.296 HD
ENDBRANCH   8  10
ENDBRANCH   7   8
ENDBRANCH   6   7
ENDBRANCH   5   6
ENDBRANCH   4   5
ENDBRANCH   3   4
ENDBRANCH   2   3
ENDBRANCH   1   2
BRANCH   1  12
ATOM     12  C   UNL     1      17.293  57.021  13.098  1.00  0.00    -0.031 C
ATOM     13  C   UNL     1      17.854  56.061  12.345  1.00  0.00    -0.031 C
BRANCH  13  14
ATOM     14  C   UNL     1      17.410  55.589  10.988  1.00  0.00    +0.027 C
BRANCH  14  15
ATOM     15  C   UNL     1      17.387  54.060  10.917  1.00  0.00    +0.004 C
BRANCH  15  16
ATOM     16  C   UNL     1      17.876  53.384  12.200  1.00  0.00    +0.000 C
BRANCH  16  17
ATOM     17  C   UNL     1      16.761  52.686  12.982  1.00  0.00    +0.000 C
BRANCH  17  18
ATOM     18  C   UNL     1      16.644  53.249  14.402  1.00  0.00    -0.000 C
BRANCH  18  19
ATOM     19  C   UNL     1      15.398  54.124  14.550  1.00  0.00    -0.000 C
BRANCH  19  20
ATOM     20  C   UNL     1      14.565  54.215  13.270  1.00  0.00    -0.003 C
ATOM     21  C   UNL     1      13.894  55.567  13.077  1.00  0.00    +0.004 C
ENDBRANCH  19  20
ENDBRANCH  18  19
ENDBRANCH  17  18
ENDBRANCH  16  17
ENDBRANCH  15  16
ENDBRANCH  14  15
ENDBRANCH  13  14
ENDBRANCH   1  12
TORSDOF 16
ENDMDL
MODEL 3
REMARK VINA RESULT:    -6.966      1.236      2.779
REMARK INTER + INTRA:         -14.608
REMARK INTER:                 -13.361
REMARK INTRA:                  -1.247
REMARK UNBOUND:                -1.330
REMARK SMILES CCCCCCCC/C=C\CCCCCCCC(=O)O
REMARK SMILES IDX 11 1 12 2 13 3 14 4 15 5 16 6 17 7 18 8 19 9 20 10 10 12
REMARK SMILES IDX 9 13 8 14 7 15 6 16 5 17 4 18 3 19 2 20 1 21
REMARK H PARENT 20 11
ROOT
ATOM      1  C   UNL     1      12.151  60.297  11.291  1.00  0.00    +0.027 C
ENDROOT
BRANCH   1   2
ATOM      2  C   UNL     1      11.260  61.257  12.084  1.00  0.00    +0.004 C
BRANCH   2   3
ATOM      3  C   UNL     1      12.042  62.410  12.723  1.00  0.00    +0.000 C
BRANCH   3   4
ATOM      4  C   UNL     1      11.719  63.742  12.041  1.00  0.00    +0.000 C
BRANCH   4   5
ATOM      5  C   UNL     1      12.953  64.643  11.975  1.00  0.00    +0.001 C
BRANCH   5   6
ATOM      6  C   UNL     1      12.761  66.020  12.621  1.00  0.00    +0.012 C
BRANCH   6   7
ATOM      7  C   UNL     1      11.568  66.108  13.574  1.00  0.00    +0.122 C
BRANCH   7   8
ATOM      8  C   UNL     1      11.961  66.323  15.011  1.00  0.00    +0.303 C
ATOM      9  O   UNL     1      12.370  67.350  15.525  1.00  0.00    -0.252 OA
BRANCH   8  10
ATOM     10  O   UNL     1      11.776  65.215  15.755  1.00  0.00    -0.481 OA
ATOM     11  H   UNL     1      12.348  65.357  16.538  1.00  0.00    +0.296 HD
ENDBRANCH   8  10
ENDBRANCH   7   8
ENDBRANCH   6   7
ENDBRANCH   5   6
ENDBRANCH   4   5
ENDBRANCH   3   4
ENDBRANCH   2   3
ENDBRANCH   1   2
BRANCH   1  12
ATOM     12  C   UNL     1      12.482  59.042  12.051  1.00  0.00    -0.031 C
ATOM     13  C   UNL     1      13.402  58.892  13.018  1.00  0.00    -0.031 C
BRANCH  13  14
ATOM     14  C   UNL     1      14.358  59.930  13.536  1.00  0.00    +0.027 C
BRANCH  14  15
ATOM     15  C   UNL     1      15.758  59.732  12.949  1.00  0.00    +0.004 C
BRANCH  15  16
ATOM     16  C   UNL     1      16.182  58.262  12.871  1.00  0.00    +0.000 C
BRANCH  16  17
ATOM     17  C   UNL     1      17.281  57.892  13.869  1.00  0.00    +0.000 C
BRANCH  17  18
ATOM     18  C   UNL     1      17.801  56.473  13.620  1.00  0.00    -0.000 C
BRANCH  18  19
ATOM     19  C   UNL     1      17.114  55.836  12.410  1.00  0.00    -0.000 C
BRANCH  19  20
ATOM     20  C   UNL     1      16.398  54.525  12.740  1.00  0.00    -0.003 C
ATOM     21  C   UNL     1      14.967  54.718  13.216  1.00  0.00    +0.004 C
ENDBRANCH  19  20
ENDBRANCH  18  19
ENDBRANCH  17  18
ENDBRANCH  16  17
ENDBRANCH  15  16
ENDBRANCH  14  15
ENDBRANCH  13  14
ENDBRANCH   1  12
TORSDOF 16
ENDMDL
MODEL 4
REMARK VINA RESULT:    -6.862      1.739      3.034
REMARK INTER + INTRA:         -14.411
REMARK INTER:                 -13.077
REMARK INTRA:                  -1.334
REMARK UNBOUND:                -1.330
REMARK SMILES CCCCCCCC/C=C\CCCCCCCC(=O)O
REMARK SMILES IDX 11 1 12 2 13 3 14 4 15 5 16 6 17 7 18 8 19 9 20 10 10 12
REMARK SMILES IDX 9 13 8 14 7 15 6 16 5 17 4 18 3 19 2 20 1 21
REMARK H PARENT 20 11
ROOT
ATOM      1  C   UNL     1      12.870  60.254  12.143  1.00  0.00    +0.027 C
ENDROOT
BRANCH   1   2
ATOM      2  C   UNL     1      11.706  61.248  12.107  1.00  0.00    +0.004 C
BRANCH   2   3
ATOM      3  C   UNL     1      12.011  62.553  12.849  1.00  0.00    +0.000 C
BRANCH   3   4
ATOM      4  C   UNL     1      12.720  63.557  11.935  1.00  0.00    +0.000 C
BRANCH   4   5
ATOM      5  C   UNL     1      12.873  64.916  12.619  1.00  0.00    +0.001 C
BRANCH   5   6
ATOM      6  C   UNL     1      12.637  66.115  11.693  1.00  0.00    +0.012 C
BRANCH   6   7
ATOM      7  C   UNL     1      11.287  66.102  10.975  1.00  0.00    +0.122 C
BRANCH   7   8
ATOM      8  C   UNL     1      10.109  66.078  11.912  1.00  0.00    +0.303 C
ATOM      9  O   UNL     1       9.943  66.749  12.916  1.00  0.00    -0.252 OA
BRANCH   8  10
ATOM     10  O   UNL     1       9.158  65.215  11.503  1.00  0.00    -0.481 OA
ATOM     11  H   UNL     1       8.405  65.792  11.257  1.00  0.00    +0.296 HD
ENDBRANCH   8  10
ENDBRANCH   7   8
ENDBRANCH   6   7
ENDBRANCH   5   6
ENDBRANCH   4   5
ENDBRANCH   3   4
ENDBRANCH   2   3
ENDBRANCH   1   2
BRANCH   1  12
ATOM     12  C   UNL     1      13.497  60.134  13.504  1.00  0.00    -0.031 C
ATOM     13  C   UNL     1      14.697  59.611  13.807  1.00  0.00    -0.031 C
BRANCH  13  14
ATOM     14  C   UNL     1      15.677  58.971  12.864  1.00  0.00    +0.027 C
BRANCH  14  15
ATOM     15  C   UNL     1      16.955  58.554  13.596  1.00  0.00    +0.004 C
BRANCH  15  16
ATOM     16  C   UNL     1      17.203  57.044  13.572  1.00  0.00    +0.000 C
BRANCH  16  17
ATOM     17  C   UNL     1      17.368  56.476  12.161  1.00  0.00    +0.000 C
BRANCH  17  18
ATOM     18  C   UNL     1      16.134  55.673  11.739  1.00  0.00    -0.000 C
BRANCH  18  19
ATOM     19  C   UNL     1      15.753  54.643  12.803  1.00  0.00    -0.000 C
BRANCH  19  20
ATOM     20  C   UNL     1      14.357  54.864  13.391  1.00  0.00    -0.003 C
ATOM     21  C   UNL     1      13.646  56.083  12.824  1.00  0.00    +0.004 C
ENDBRANCH  19  20
ENDBRANCH  18  19
ENDBRANCH  17  18
ENDBRANCH  16  17
ENDBRANCH  15  16
ENDBRANCH  14  15
ENDBRANCH  13  14
ENDBRANCH   1  12
TORSDOF 16
ENDMDL
MODEL 5
REMARK VINA RESULT:    -6.837      2.130      3.177
REMARK INTER + INTRA:         -14.363
REMARK INTER:                 -13.075
REMARK INTRA:                  -1.287
REMARK UNBOUND:                -1.330
REMARK SMILES CCCCCCCC/C=C\CCCCCCCC(=O)O
REMARK SMILES IDX 11 1 12 2 13 3 14 4 15 5 16 6 17 7 18 8 19 9 20 10 10 12
REMARK SMILES IDX 9 13 8 14 7 15 6 16 5 17 4 18 3 19 2 20 1 21
REMARK H PARENT 20 11
ROOT
ATOM      1  C   UNL     1      12.377  59.935  11.257  1.00  0.00    +0.027 C
ENDROOT
BRANCH   1   2
ATOM      2  C   UNL     1      11.117  60.523  11.897  1.00  0.00    +0.004 C
BRANCH   2   3
ATOM      3  C   UNL     1      11.208  62.036  12.118  1.00  0.00    +0.000 C
BRANCH   3   4
ATOM      4  C   UNL     1      12.618  62.450  12.546  1.00  0.00    +0.000 C
BRANCH   4   5
ATOM      5  C   UNL     1      12.854  63.942  12.309  1.00  0.00    +0.001 C
BRANCH   5   6
ATOM      6  C   UNL     1      11.606  64.710  11.858  1.00  0.00    +0.012 C
BRANCH   6   7
ATOM      7  C   UNL     1      11.846  66.196  11.583  1.00  0.00    +0.122 C
BRANCH   7   8
ATOM      8  C   UNL     1      12.606  66.456  10.311  1.00  0.00    +0.303 C
ATOM      9  O   UNL     1      13.815  66.450  10.152  1.00  0.00    -0.252 OA
BRANCH   8  10
ATOM     10  O   UNL     1      11.782  66.680   9.269  1.00  0.00    -0.481 OA
ATOM     11  H   UNL     1      10.897  66.432   9.610  1.00  0.00    +0.296 HD
ENDBRANCH   8  10
ENDBRANCH   7   8
ENDBRANCH   6   7
ENDBRANCH   5   6
ENDBRANCH   4   5
ENDBRANCH   3   4
ENDBRANCH   2   3
ENDBRANCH   1   2
BRANCH   1  12
ATOM     12  C   UNL     1      12.834  58.665  11.921  1.00  0.00    -0.031 C
ATOM     13  C   UNL     1      13.868  58.511  12.764  1.00  0.00    -0.031 C
BRANCH  13  14
ATOM     14  C   UNL     1      14.849  59.560  13.205  1.00  0.00    +0.027 C
BRANCH  14  15
ATOM     15  C   UNL     1      16.223  58.947  13.487  1.00  0.00    +0.004 C
BRANCH  15  16
ATOM     16  C   UNL     1      16.440  57.598  12.796  1.00  0.00    +0.000 C
BRANCH  16  17
ATOM     17  C   UNL     1      17.481  56.719  13.491  1.00  0.00    +0.000 C
BRANCH  17  18
ATOM     18  C   UNL     1      17.296  55.244  13.124  1.00  0.00    -0.000 C
BRANCH  18  19
ATOM     19  C   UNL     1      17.024  54.393  14.366  1.00  0.00    -0.000 C
BRANCH  19  20
ATOM     20  C   UNL     1      15.544  54.054  14.558  1.00  0.00    -0.003 C
ATOM     21  C   UNL     1      14.701  54.293  13.315  1.00  0.00    +0.004 C
ENDBRANCH  19  20
ENDBRANCH  18  19
ENDBRANCH  17  18
ENDBRANCH  16  17
ENDBRANCH  15  16
ENDBRANCH  14  15
ENDBRANCH  13  14
ENDBRANCH   1  12
TORSDOF 16
ENDMDL
MODEL 6
REMARK VINA RESULT:    -6.692      5.954     10.608
REMARK INTER + INTRA:         -14.085
REMARK INTER:                 -13.091
REMARK INTRA:                  -0.995
REMARK UNBOUND:                -1.330
REMARK SMILES CCCCCCCC/C=C\CCCCCCCC(=O)O
REMARK SMILES IDX 11 1 12 2 13 3 14 4 15 5 16 6 17 7 18 8 19 9 20 10 10 12
REMARK SMILES IDX 9 13 8 14 7 15 6 16 5 17 4 18 3 19 2 20 1 21
REMARK H PARENT 20 11
ROOT
ATOM      1  C   UNL     1      15.776  54.116  13.365  1.00  0.00    +0.027 C
ENDROOT
BRANCH   1   2
ATOM      2  C   UNL     1      15.417  52.661  13.678  1.00  0.00    +0.004 C
BRANCH   2   3
ATOM      3  C   UNL     1      15.247  52.395  15.176  1.00  0.00    +0.000 C
BRANCH   3   4
ATOM      4  C   UNL     1      16.346  51.468  15.703  1.00  0.00    +0.000 C
BRANCH   4   5
ATOM      5  C   UNL     1      15.766  50.381  16.609  1.00  0.00    +0.001 C
BRANCH   5   6
ATOM      6  C   UNL     1      14.277  50.557  16.927  1.00  0.00    +0.012 C
BRANCH   6   7
ATOM      7  C   UNL     1      13.486  49.250  16.984  1.00  0.00    +0.122 C
BRANCH   7   8
ATOM      8  C   UNL     1      12.889  48.850  15.661  1.00  0.00    +0.303 C
ATOM      9  O   UNL     1      13.478  48.621  14.619  1.00  0.00    -0.252 OA
BRANCH   8  10
ATOM     10  O   UNL     1      11.551  48.718  15.732  1.00  0.00    -0.481 OA
ATOM     11  H   UNL     1      11.288  48.481  14.818  1.00  0.00    +0.296 HD
ENDBRANCH   8  10
ENDBRANCH   7   8
ENDBRANCH   6   7
ENDBRANCH   5   6
ENDBRANCH   4   5
ENDBRANCH   3   4
ENDBRANCH   2   3
ENDBRANCH   1   2
BRANCH   1  12
ATOM     12  C   UNL     1      14.585  55.033  13.391  1.00  0.00    -0.031 C
ATOM     13  C   UNL     1      14.460  56.226  12.786  1.00  0.00    -0.031 C
BRANCH  13  14
ATOM     14  C   UNL     1      15.501  56.955  11.984  1.00  0.00    +0.027 C
BRANCH  14  15
ATOM     15  C   UNL     1      16.616  57.492  12.885  1.00  0.00    +0.004 C
BRANCH  15  16
ATOM     16  C   UNL     1      16.211  58.738  13.677  1.00  0.00    +0.000 C
BRANCH  16  17
ATOM     17  C   UNL     1      15.365  59.724  12.868  1.00  0.00    +0.000 C
BRANCH  17  18
ATOM     18  C   UNL     1      13.952  59.846  13.446  1.00  0.00    -0.000 C
BRANCH  18  19
ATOM     19  C   UNL     1      13.232  61.078  12.895  1.00  0.00    -0.000 C
BRANCH  19  20
ATOM     20  C   UNL     1      11.908  60.749  12.203  1.00  0.00    -0.003 C
ATOM     21  C   UNL     1      11.969  59.498  11.340  1.00  0.00    +0.004 C
ENDBRANCH  19  20
ENDBRANCH  18  19
ENDBRANCH  17  18
ENDBRANCH  16  17
ENDBRANCH  15  16
ENDBRANCH  14  15
ENDBRANCH  13  14
ENDBRANCH   1  12
TORSDOF 16
ENDMDL
MODEL 7
REMARK VINA RESULT:    -6.631      5.685     10.195
REMARK INTER + INTRA:         -13.970
REMARK INTER:                 -12.837
REMARK INTRA:                  -1.133
REMARK UNBOUND:                -1.330
REMARK SMILES CCCCCCCC/C=C\CCCCCCCC(=O)O
REMARK SMILES IDX 11 1 12 2 13 3 14 4 15 5 16 6 17 7 18 8 19 9 20 10 10 12
REMARK SMILES IDX 9 13 8 14 7 15 6 16 5 17 4 18 3 19 2 20 1 21
REMARK H PARENT 20 11
ROOT
ATOM      1  C   UNL     1      17.705  53.569  12.535  1.00  0.00    +0.027 C
ENDROOT
BRANCH   1   2
ATOM      2  C   UNL     1      16.467  52.878  13.113  1.00  0.00    +0.004 C
BRANCH   2   3
ATOM      3  C   UNL     1      15.629  53.798  14.006  1.00  0.00    +0.000 C
BRANCH   3   4
ATOM      4  C   UNL     1      15.359  53.153  15.368  1.00  0.00    +0.000 C
BRANCH   4   5
ATOM      5  C   UNL     1      15.433  51.628  15.282  1.00  0.00    +0.001 C
BRANCH   5   6
ATOM      6  C   UNL     1      14.941  50.905  16.541  1.00  0.00    +0.012 C
BRANCH   6   7
ATOM      7  C   UNL     1      14.153  49.623  16.265  1.00  0.00    +0.122 C
BRANCH   7   8
ATOM      8  C   UNL     1      12.905  49.494  17.096  1.00  0.00    +0.303 C
ATOM      9  O   UNL     1      12.690  49.975  18.195  1.00  0.00    -0.252 OA
BRANCH   8  10
ATOM     10  O   UNL     1      11.953  48.779  16.466  1.00  0.00    -0.481 OA
ATOM     11  H   UNL     1      11.176  49.377  16.455  1.00  0.00    +0.296 HD
ENDBRANCH   8  10
ENDBRANCH   7   8
ENDBRANCH   6   7
ENDBRANCH   5   6
ENDBRANCH   4   5
ENDBRANCH   3   4
ENDBRANCH   2   3
ENDBRANCH   1   2
BRANCH   1  12
ATOM     12  C   UNL     1      17.367  54.612  11.505  1.00  0.00    -0.031 C
ATOM     13  C   UNL     1      17.309  55.942  11.680  1.00  0.00    -0.031 C
BRANCH  13  14
ATOM     14  C   UNL     1      17.516  56.705  12.959  1.00  0.00    +0.027 C
BRANCH  14  15
ATOM     15  C   UNL     1      16.430  57.766  13.150  1.00  0.00    +0.004 C
BRANCH  15  16
ATOM     16  C   UNL     1      15.161  57.489  12.339  1.00  0.00    +0.000 C
BRANCH  16  17
ATOM     17  C   UNL     1      13.963  58.335  12.778  1.00  0.00    +0.000 C
BRANCH  17  18
ATOM     18  C   UNL     1      14.411  59.707  13.289  1.00  0.00    -0.000 C
BRANCH  18  19
ATOM     19  C   UNL     1      13.284  60.735  13.176  1.00  0.00    -0.000 C
BRANCH  19  20
ATOM     20  C   UNL     1      12.353  60.488  11.988  1.00  0.00    -0.003 C
ATOM     21  C   UNL     1      11.052  61.273  12.061  1.00  0.00    +0.004 C
ENDBRANCH  19  20
ENDBRANCH  18  19
ENDBRANCH  17  18
ENDBRANCH  16  17
ENDBRANCH  15  16
ENDBRANCH  14  15
ENDBRANCH  13  14
ENDBRANCH   1  12
TORSDOF 16
ENDMDL
MODEL 8
REMARK VINA RESULT:    -6.629      6.399     11.029
REMARK INTER + INTRA:         -13.966
REMARK INTER:                 -12.810
REMARK INTRA:                  -1.156
REMARK UNBOUND:                -1.330
REMARK SMILES CCCCCCCC/C=C\CCCCCCCC(=O)O
REMARK SMILES IDX 11 1 12 2 13 3 14 4 15 5 16 6 17 7 18 8 19 9 20 10 10 12
REMARK SMILES IDX 9 13 8 14 7 15 6 16 5 17 4 18 3 19 2 20 1 21
REMARK H PARENT 20 11
ROOT
ATOM      1  C   UNL     1      15.800  54.110  13.193  1.00  0.00    +0.027 C
ENDROOT
BRANCH   1   2
ATOM      2  C   UNL     1      15.563  52.701  13.745  1.00  0.00    +0.004 C
BRANCH   2   3
ATOM      3  C   UNL     1      15.506  52.660  15.275  1.00  0.00    +0.000 C
BRANCH   3   4
ATOM      4  C   UNL     1      15.859  51.268  15.805  1.00  0.00    +0.000 C
BRANCH   4   5
ATOM      5  C   UNL     1      14.714  50.684  16.634  1.00  0.00    +0.001 C
BRANCH   5   6
ATOM      6  C   UNL     1      14.635  49.153  16.606  1.00  0.00    +0.012 C
BRANCH   6   7
ATOM      7  C   UNL     1      15.795  48.449  17.311  1.00  0.00    +0.122 C
BRANCH   7   8
ATOM      8  C   UNL     1      15.588  48.287  18.793  1.00  0.00    +0.303 C
ATOM      9  O   UNL     1      16.379  48.536  19.686  1.00  0.00    -0.252 OA
BRANCH   8  10
ATOM     10  O   UNL     1      14.349  47.845  19.083  1.00  0.00    -0.481 OA
ATOM     11  H   UNL     1      13.841  48.664  19.260  1.00  0.00    +0.296 HD
ENDBRANCH   8  10
ENDBRANCH   7   8
ENDBRANCH   6   7
ENDBRANCH   5   6
ENDBRANCH   4   5
ENDBRANCH   3   4
ENDBRANCH   2   3
ENDBRANCH   1   2
BRANCH   1  12
ATOM     12  C   UNL     1      14.556  54.955  13.188  1.00  0.00    -0.031 C
ATOM     13  C   UNL     1      14.419  56.202  12.709  1.00  0.00    -0.031 C
BRANCH  13  14
ATOM     14  C   UNL     1      15.488  57.072  12.110  1.00  0.00    +0.027 C
BRANCH  14  15
ATOM     15  C   UNL     1      16.492  57.523  13.174  1.00  0.00    +0.004 C
BRANCH  15  16
ATOM     16  C   UNL     1      16.441  59.027  13.459  1.00  0.00    +0.000 C
BRANCH  16  17
ATOM     17  C   UNL     1      15.280  59.738  12.762  1.00  0.00    +0.000 C
BRANCH  17  18
ATOM     18  C   UNL     1      14.130  60.008  13.736  1.00  0.00    -0.000 C
BRANCH  18  19
ATOM     19  C   UNL     1      12.844  60.370  12.990  1.00  0.00    -0.000 C
BRANCH  19  20
ATOM     20  C   UNL     1      12.827  59.884  11.539  1.00  0.00    -0.003 C
ATOM     21  C   UNL     1      11.895  58.705  11.304  1.00  0.00    +0.004 C
ENDBRANCH  19  20
ENDBRANCH  18  19
ENDBRANCH  17  18
ENDBRANCH  16  17
ENDBRANCH  15  16
ENDBRANCH  14  15
ENDBRANCH  13  14
ENDBRANCH   1  12
TORSDOF 16
ENDMDL
MODEL 9
REMARK VINA RESULT:    -6.560      1.693      2.823
REMARK INTER + INTRA:         -13.835
REMARK INTER:                 -12.165
REMARK INTRA:                  -1.670
REMARK UNBOUND:                -1.330
REMARK SMILES CCCCCCCC/C=C\CCCCCCCC(=O)O
REMARK SMILES IDX 11 1 12 2 13 3 14 4 15 5 16 6 17 7 18 8 19 9 20 10 10 12
REMARK SMILES IDX 9 13 8 14 7 15 6 16 5 17 4 18 3 19 2 20 1 21
REMARK H PARENT 20 11
ROOT
ATOM      1  C   UNL     1      16.144  58.358  13.149  1.00  0.00    +0.027 C
ENDROOT
BRANCH   1   2
ATOM      2  C   UNL     1      15.407  59.699  13.177  1.00  0.00    +0.004 C
BRANCH   2   3
ATOM      3  C   UNL     1      14.019  59.633  12.533  1.00  0.00    +0.000 C
BRANCH   3   4
ATOM      4  C   UNL     1      13.019  60.519  13.281  1.00  0.00    +0.000 C
BRANCH   4   5
ATOM      5  C   UNL     1      11.745  60.729  12.462  1.00  0.00    +0.001 C
BRANCH   5   6
ATOM      6  C   UNL     1      11.443  62.196  12.135  1.00  0.00    +0.012 C
BRANCH   6   7
ATOM      7  C   UNL     1      12.675  63.101  12.100  1.00  0.00    +0.122 C
BRANCH   7   8
ATOM      8  C   UNL     1      12.342  64.568  12.042  1.00  0.00    +0.303 C
ATOM      9  O   UNL     1      11.268  65.077  11.770  1.00  0.00    -0.252 OA
BRANCH   8  10
ATOM     10  O   UNL     1      13.396  65.337  12.377  1.00  0.00    -0.481 OA
ATOM     11  H   UNL     1      14.115  65.021  11.790  1.00  0.00    +0.296 HD
ENDBRANCH   8  10
ENDBRANCH   7   8
ENDBRANCH   6   7
ENDBRANCH   5   6
ENDBRANCH   4   5
ENDBRANCH   3   4
ENDBRANCH   2   3
ENDBRANCH   1   2
BRANCH   1  12
ATOM     12  C   UNL     1      15.238  57.197  12.847  1.00  0.00    -0.031 C
ATOM     13  C   UNL     1      15.373  56.289  11.867  1.00  0.00    -0.031 C
BRANCH  13  14
ATOM     14  C   UNL     1      16.434  56.247  10.802  1.00  0.00    +0.027 C
BRANCH  14  15
ATOM     15  C   UNL     1      17.658  55.458  11.274  1.00  0.00    +0.004 C
BRANCH  15  16
ATOM     16  C   UNL     1      17.464  53.940  11.210  1.00  0.00    +0.000 C
BRANCH  16  17
ATOM     17  C   UNL     1      17.692  53.240  12.551  1.00  0.00    +0.000 C
BRANCH  17  18
ATOM     18  C   UNL     1      17.988  54.253  13.661  1.00  0.00    -0.000 C
BRANCH  18  19
ATOM     19  C   UNL     1      16.838  54.323  14.669  1.00  0.00    -0.000 C
BRANCH  19  20
ATOM     20  C   UNL     1      15.689  53.366  14.345  1.00  0.00    -0.003 C
ATOM     21  C   UNL     1      15.469  52.300  15.408  1.00  0.00    +0.004 C
ENDBRANCH  19  20
ENDBRANCH  18  19
ENDBRANCH  17  18
ENDBRANCH  16  17
ENDBRANCH  15  16
ENDBRANCH  14  15
ENDBRANCH  13  14
ENDBRANCH   1  12
TORSDOF 16
ENDMDL
MODEL 10
REMARK VINA RESULT:    -6.504      3.378      5.472
REMARK INTER + INTRA:         -13.728
REMARK INTER:                 -12.756
REMARK INTRA:                  -0.972
REMARK UNBOUND:                -1.330
REMARK SMILES CCCCCCCC/C=C\CCCCCCCC(=O)O
REMARK SMILES IDX 11 1 12 2 13 3 14 4 15 5 16 6 17 7 18 8 19 9 20 10 10 12
REMARK SMILES IDX 9 13 8 14 7 15 6 16 5 17 4 18 3 19 2 20 1 21
REMARK H PARENT 20 11
ROOT
ATOM      1  C   UNL     1      16.823  56.290  12.581  1.00  0.00    +0.027 C
ENDROOT
BRANCH   1   2
ATOM      2  C   UNL     1      15.386  56.324  12.055  1.00  0.00    +0.004 C
BRANCH   2   3
ATOM      3  C   UNL     1      14.774  57.728  12.076  1.00  0.00    +0.000 C
BRANCH   3   4
ATOM      4  C   UNL     1      15.380  58.580  13.195  1.00  0.00    +0.000 C
BRANCH   4   5
ATOM      5  C   UNL     1      14.971  60.046  13.058  1.00  0.00    +0.001 C
BRANCH   5   6
ATOM      6  C   UNL     1      13.580  60.365  13.620  1.00  0.00    +0.012 C
BRANCH   6   7
ATOM      7  C   UNL     1      12.723  61.252  12.716  1.00  0.00    +0.122 C
BRANCH   7   8
ATOM      8  C   UNL     1      11.749  60.480  11.866  1.00  0.00    +0.303 C
ATOM      9  O   UNL     1      11.994  59.561  11.104  1.00  0.00    -0.252 OA
BRANCH   8  10
ATOM     10  O   UNL     1      10.480  60.891  12.055  1.00  0.00    -0.481 OA
ATOM     11  H   UNL     1      10.577  61.783  12.450  1.00  0.00    +0.296 HD
ENDBRANCH   8  10
ENDBRANCH   7   8
ENDBRANCH   6   7
ENDBRANCH   5   6
ENDBRANCH   4   5
ENDBRANCH   3   4
ENDBRANCH   2   3
ENDBRANCH   1   2
BRANCH   1  12
ATOM     12  C   UNL     1      17.382  54.897  12.669  1.00  0.00    -0.031 C
ATOM     13  C   UNL     1      17.166  53.990  13.636  1.00  0.00    -0.031 C
BRANCH  13  14
ATOM     14  C   UNL     1      16.356  54.169  14.890  1.00  0.00    +0.027 C
BRANCH  14  15
ATOM     15  C   UNL     1      15.371  53.013  15.079  1.00  0.00    +0.004 C
BRANCH  15  16
ATOM     16  C   UNL     1      16.042  51.636  15.080  1.00  0.00    +0.000 C
BRANCH  16  17
ATOM     17  C   UNL     1      15.908  50.896  16.413  1.00  0.00    +0.000 C
BRANCH  17  18
ATOM     18  C   UNL     1      14.684  49.976  16.415  1.00  0.00    -0.000 C
BRANCH  18  19
ATOM     19  C   UNL     1      13.922  50.070  17.739  1.00  0.00    -0.000 C
BRANCH  19  20
ATOM     20  C   UNL     1      12.459  49.638  17.629  1.00  0.00    -0.003 C
ATOM     21  C   UNL     1      12.125  48.950  16.314  1.00  0.00    +0.004 C
ENDBRANCH  19  20
ENDBRANCH  18  19
ENDBRANCH  17  18
ENDBRANCH  16  17
ENDBRANCH  15  16
ENDBRANCH  14  15
ENDBRANCH  13  14
ENDBRANCH   1  12
TORSDOF 16
ENDMDL
