MODEL 1
REMARK VINA RESULT:    -7.055      0.000      0.000
REMARK INTER + INTRA:         -15.101
REMARK INTER:                 -13.447
REMARK INTRA:                  -1.654
REMARK UNBOUND:                -1.654
REMARK SMILES CCCCCCCC/C=C\CCCCCCCC(=O)O
REMARK SMILES IDX 11 1 12 2 13 3 14 4 15 5 16 6 17 7 18 8 19 9 20 10 10 12
REMARK SMILES IDX 9 13 8 14 7 15 6 16 5 17 4 18 3 19 2 20 1 21
REMARK H PARENT 20 11
ROOT
ATOM      1  C   UNL     1      15.556  59.880  12.797  1.00  0.00    +0.027 C 
ENDROOT
BRANCH   1   2
ATOM      2  C   UNL     1      14.142  59.957  13.379  1.00  0.00    +0.004 C 
BRANCH   2   3
ATOM      3  C   UNL     1      13.079  59.361  12.451  1.00  0.00    +0.000 C 
BRANCH   3   4
ATOM      4  C   UNL     1      12.042  60.413  12.049  1.00  0.00    +0.000 C 
BRANCH   4   5
ATOM      5  C   UNL     1      12.220  61.702  12.854  1.00  0.00    +0.001 C 
BRANCH   5   6
ATOM      6  C   UNL     1      11.994  62.984  12.044  1.00  0.00    +0.012 C 
BRANCH   6   7
ATOM      7  C   UNL     1      12.887  64.155  12.456  1.00  0.00    +0.122 C 
BRANCH   7   8
ATOM      8  C   UNL     1      12.211  65.128  13.386  1.00  0.00    +0.303 C 
ATOM      9  O   UNL     1      12.226  65.124  14.605  1.00  0.00    -0.252 OA
BRANCH   8  10
ATOM     10  O   UNL     1      11.567  66.101  12.714  1.00  0.00    -0.481 OA
ATOM     11  H   UNL     1      12.175  66.868  12.768  1.00  0.00    +0.296 HD
ENDBRANCH   8  10
ENDBRANCH   7   8
ENDBRANCH   6   7
ENDBRANCH   5   6
ENDBRANCH   4   5
ENDBRANCH   3   4
ENDBRANCH   2   3
ENDBRANCH   1   2
BRANCH   1  12
ATOM     12  C   UNL     1      16.411  58.843  13.471  1.00  0.00    -0.031 C 
ATOM     13  C   UNL     1      16.480  57.532  13.186  1.00  0.00    -0.031 C 
BRANCH  13  14
ATOM     14  C   UNL     1      15.679  56.777  12.163  1.00  0.00    +0.027 C 
BRANCH  14  15
ATOM     15  C   UNL     1      14.474  56.087  12.805  1.00  0.00    +0.004 C 
BRANCH  15  16
ATOM     16  C   UNL     1      14.684  54.588  13.038  1.00  0.00    +0.000 C 
BRANCH  16  17
ATOM     17  C   UNL     1      15.143  54.252  14.459  1.00  0.00    +0.000 C 
BRANCH  17  18
ATOM     18  C   UNL     1      16.449  53.454  14.445  1.00  0.00    -0.000 C 
BRANCH  18  19
ATOM     19  C   UNL     1      16.683  52.797  13.083  1.00  0.00    -0.000 C 
BRANCH  19  20
ATOM     20  C   UNL     1      17.951  53.288  12.382  1.00  0.00    -0.003 C 
ATOM     21  C   UNL     1      17.686  53.940  11.034  1.00  0.00    +0.004 C 
ENDBRANCH  19  20
ENDBRANCH  18  19
ENDBRANCH  17  18
ENDBRANCH  16  17
ENDBRANCH  15  16
ENDBRANCH  14  15
ENDBRANCH  13  14
ENDBRANCH   1  12
TORSDOF 16
ENDMDL
MODEL 2
REMARK VINA RESULT:    -6.959      1.136      2.635
REMARK INTER + INTRA:         -14.918
REMARK INTER:                 -13.588
REMARK INTRA:                  -1.331
REMARK UNBOUND:                -1.654
REMARK SMILES CCCCCCCC/C=C\CCCCCCCC(=O)O
REMARK SMILES IDX 11 1 12 2 13 3 14 4 15 5 16 6 17 7 18 8 19 9 20 10 10 12
REMARK SMILES IDX 9 13 8 14 7 15 6 16 5 17 4 18 3 19 2 20 1 21
REMARK H PARENT 20 11
ROOT
ATOM      1  C   UNL     1      13.229  59.055  12.249  1.00  0.00    +0.027 C 
ENDROOT
BRANCH   1   2
ATOM      2  C   UNL     1      12.261  59.925  11.443  1.00  0.00    +0.004 C 
BRANCH   2   3
ATOM      3  C   UNL     1      11.275  60.698  12.324  1.00  0.00    +0.000 C 
BRANCH   3   4
ATOM      4  C   UNL     1      11.280  62.191  11.983  1.00  0.00    +0.000 C 
BRANCH   4   5
ATOM      5  C   UNL     1      12.361  62.934  12.768  1.00  0.00    +0.001 C 
BRANCH   5   6
ATOM      6  C   UNL     1      12.708  64.317  12.205  1.00  0.00    +0.012 C 
BRANCH   6   7
ATOM      7  C   UNL     1      13.038  65.366  13.267  1.00  0.00    +0.122 C 
BRANCH   7   8
ATOM      8  C   UNL     1      11.865  65.728  14.138  1.00  0.00    +0.303 C 
ATOM      9  O   UNL     1      10.864  66.347  13.820  1.00  0.00    -0.252 OA
BRANCH   8  10
ATOM     10  O   UNL     1      11.999  65.246  15.389  1.00  0.00    -0.481 OA
ATOM     11  H   UNL     1      12.206  66.038  15.927  1.00  0.00    +0.296 HD
ENDBRANCH   8  10
ENDBRANCH   7   8
ENDBRANCH   6   7
ENDBRANCH   5   6
ENDBRANCH   4   5
ENDBRANCH   3   4
ENDBRANCH   2   3
ENDBRANCH   1   2
BRANCH   1  12
ATOM     12  C   UNL     1      14.134  59.856  13.143  1.00  0.00    -0.031 C 
ATOM     13  C   UNL     1      15.386  59.551  13.522  1.00  0.00    -0.031 C 
BRANCH  13  14
ATOM     14  C   UNL     1      16.163  58.309  13.187  1.00  0.00    +0.027 C 
BRANCH  14  15
ATOM     15  C   UNL     1      17.432  58.206  14.037  1.00  0.00    +0.004 C 
BRANCH  15  16
ATOM     16  C   UNL     1      18.117  56.840  13.943  1.00  0.00    +0.000 C 
BRANCH  16  17
ATOM     17  C   UNL     1      17.688  56.028  12.719  1.00  0.00    +0.000 C 
BRANCH  17  18
ATOM     18  C   UNL     1      17.469  54.555  13.080  1.00  0.00    -0.000 C 
BRANCH  18  19
ATOM     19  C   UNL     1      16.401  54.404  14.165  1.00  0.00    -0.000 C 
BRANCH  19  20
ATOM     20  C   UNL     1      15.022  54.040  13.612  1.00  0.00    -0.003 C 
ATOM     21  C   UNL     1      14.213  55.245  13.157  1.00  0.00    +0.004 C 
ENDBRANCH  19  20
ENDBRANCH  18  19
ENDBRANCH  17  18
ENDBRANCH  16  17
ENDBRANCH  15  16
ENDBRANCH  14  15
ENDBRANCH  13  14
ENDBRANCH   1  12
TORSDOF 16
ENDMDL
MODEL 3
REMARK VINA RESULT:    -6.950      1.221      2.234
REMARK INTER + INTRA:         -14.900
REMARK INTER:                 -13.562
REMARK INTRA:                  -1.339
REMARK UNBOUND:                -1.654
REMARK SMILES CCCCCCCC/C=C\CCCCCCCC(=O)O
REMARK SMILES IDX 11 1 12 2 13 3 14 4 15 5 16 6 17 7 18 8 19 9 20 10 10 12
REMARK SMILES IDX 9 13 8 14 7 15 6 16 5 17 4 18 3 19 2 20 1 21
REMARK H PARENT 20 11
ROOT
ATOM      1  C   UNL     1      15.379  59.791  12.849  1.00  0.00    +0.027 C 
ENDROOT
BRANCH   1   2
ATOM      2  C   UNL     1      13.898  59.575  13.172  1.00  0.00    +0.004 C 
BRANCH   2   3
ATOM      3  C   UNL     1      13.128  58.905  12.029  1.00  0.00    +0.000 C 
BRANCH   3   4
ATOM      4  C   UNL     1      12.240  59.913  11.294  1.00  0.00    +0.000 C 
BRANCH   4   5
ATOM      5  C   UNL     1      11.360  60.692  12.272  1.00  0.00    +0.001 C 
BRANCH   5   6
ATOM      6  C   UNL     1      11.308  62.200  12.006  1.00  0.00    +0.012 C 
BRANCH   6   7
ATOM      7  C   UNL     1      12.457  62.992  12.632  1.00  0.00    +0.122 C 
BRANCH   7   8
ATOM      8  C   UNL     1      12.593  64.388  12.085  1.00  0.00    +0.303 C 
ATOM      9  O   UNL     1      13.604  65.067  12.023  1.00  0.00    -0.252 OA
BRANCH   8  10
ATOM     10  O   UNL     1      11.427  64.853  11.597  1.00  0.00    -0.481 OA
ATOM     11  H   UNL     1      11.652  65.744  11.256  1.00  0.00    +0.296 HD
ENDBRANCH   8  10
ENDBRANCH   7   8
ENDBRANCH   6   7
ENDBRANCH   5   6
ENDBRANCH   4   5
ENDBRANCH   3   4
ENDBRANCH   2   3
ENDBRANCH   1   2
BRANCH   1  12
ATOM     12  C   UNL     1      16.280  58.809  13.545  1.00  0.00    -0.031 C 
ATOM     13  C   UNL     1      16.573  57.556  13.161  1.00  0.00    -0.031 C 
BRANCH  13  14
ATOM     14  C   UNL     1      16.028  56.816  11.971  1.00  0.00    +0.027 C 
BRANCH  14  15
ATOM     15  C   UNL     1      17.156  56.182  11.152  1.00  0.00    +0.004 C 
BRANCH  15  16
ATOM     16  C   UNL     1      17.056  54.657  11.061  1.00  0.00    +0.000 C 
BRANCH  16  17
ATOM     17  C   UNL     1      17.831  53.930  12.162  1.00  0.00    +0.000 C 
BRANCH  17  18
ATOM     18  C   UNL     1      16.886  53.157  13.087  1.00  0.00    -0.000 C 
BRANCH  18  19
ATOM     19  C   UNL     1      16.478  54.002  14.295  1.00  0.00    -0.000 C 
BRANCH  19  20
ATOM     20  C   UNL     1      15.368  53.366  15.134  1.00  0.00    -0.003 C 
ATOM     21  C   UNL     1      15.627  51.906  15.476  1.00  0.00    +0.004 C 
ENDBRANCH  19  20
ENDBRANCH  18  19
ENDBRANCH  17  18
ENDBRANCH  16  17
ENDBRANCH  15  16
ENDBRANCH  14  15
ENDBRANCH  13  14
ENDBRANCH   1  12
TORSDOF 16
ENDMDL
MODEL 4
REMARK VINA RESULT:    -6.870      4.408      9.463
REMARK INTER + INTRA:         -14.749
REMARK INTER:                 -13.380
REMARK INTRA:                  -1.369
REMARK UNBOUND:                -1.654
REMARK SMILES CCCCCCCC/C=C\CCCCCCCC(=O)O
REMARK SMILES IDX 11 1 12 2 13 3 14 4 15 5 16 6 17 7 18 8 19 9 20 10 10 12
REMARK SMILES IDX 9 13 8 14 7 15 6 16 5 17 4 18 3 19 2 20 1 21
REMARK H PARENT 20 11
ROOT
ATOM      1  C   UNL     1      13.476  58.806  13.057  1.00  0.00    +0.027 C 
ENDROOT
BRANCH   1   2
ATOM      2  C   UNL     1      14.602  59.778  13.420  1.00  0.00    +0.004 C 
BRANCH   2   3
ATOM      3  C   UNL     1      15.951  59.385  12.810  1.00  0.00    +0.000 C 
BRANCH   3   4
ATOM      4  C   UNL     1      16.799  58.589  13.805  1.00  0.00    +0.000 C 
BRANCH   4   5
ATOM      5  C   UNL     1      17.173  57.218  13.241  1.00  0.00    +0.001 C 
BRANCH   5   6
ATOM      6  C   UNL     1      16.288  56.755  12.077  1.00  0.00    +0.012 C 
BRANCH   6   7
ATOM      7  C   UNL     1      17.056  56.398  10.804  1.00  0.00    +0.122 C 
BRANCH   7   8
ATOM      8  C   UNL     1      16.992  54.935  10.454  1.00  0.00    +0.303 C 
ATOM      9  O   UNL     1      17.346  53.990  11.137  1.00  0.00    -0.252 OA
BRANCH   8  10
ATOM     10  O   UNL     1      16.434  54.731   9.244  1.00  0.00    -0.481 OA
ATOM     11  H   UNL     1      16.074  55.609   8.999  1.00  0.00    +0.296 HD
ENDBRANCH   8  10
ENDBRANCH   7   8
ENDBRANCH   6   7
ENDBRANCH   5   6
ENDBRANCH   4   5
ENDBRANCH   3   4
ENDBRANCH   2   3
ENDBRANCH   1   2
BRANCH   1  12
ATOM     12  C   UNL     1      12.860  59.097  11.717  1.00  0.00    -0.031 C 
ATOM     13  C   UNL     1      11.935  60.028  11.429  1.00  0.00    -0.031 C 
BRANCH  13  14
ATOM     14  C   UNL     1      11.255  60.965  12.387  1.00  0.00    +0.027 C 
BRANCH  14  15
ATOM     15  C   UNL     1      11.277  62.403  11.861  1.00  0.00    +0.004 C 
BRANCH  15  16
ATOM     16  C   UNL     1      12.568  63.153  12.199  1.00  0.00    +0.000 C 
BRANCH  16  17
ATOM     17  C   UNL     1      12.343  64.389  13.073  1.00  0.00    +0.000 C 
BRANCH  17  18
ATOM     18  C   UNL     1      12.710  65.672  12.323  1.00  0.00    -0.000 C 
BRANCH  18  19
ATOM     19  C   UNL     1      11.483  66.288  11.646  1.00  0.00    -0.000 C 
BRANCH  19  20
ATOM     20  C   UNL     1      11.713  66.638  10.175  1.00  0.00    -0.003 C 
ATOM     21  C   UNL     1      13.132  66.364   9.700  1.00  0.00    +0.004 C 
ENDBRANCH  19  20
ENDBRANCH  18  19
ENDBRANCH  17  18
ENDBRANCH  16  17
ENDBRANCH  15  16
ENDBRANCH  14  15
ENDBRANCH  13  14
ENDBRANCH   1  12
TORSDOF 16
ENDMDL
MODEL 5
REMARK VINA RESULT:    -6.811      4.217      9.246
REMARK INTER + INTRA:         -14.635
REMARK INTER:                 -13.499
REMARK INTRA:                  -1.136
REMARK UNBOUND:                -1.654
REMARK SMILES CCCCCCCC/C=C\CCCCCCCC(=O)O
REMARK SMILES IDX 11 1 12 2 13 3 14 4 15 5 16 6 17 7 18 8 19 9 20 10 10 12
REMARK SMILES IDX 9 13 8 14 7 15 6 16 5 17 4 18 3 19 2 20 1 21
REMARK H PARENT 20 11
ROOT
ATOM      1  C   UNL     1      16.007  57.808  12.827  1.00  0.00    +0.027 C 
ENDROOT
BRANCH   1   2
ATOM      2  C   UNL     1      17.262  57.287  13.532  1.00  0.00    +0.004 C 
BRANCH   2   3
ATOM      3  C   UNL     1      17.959  56.163  12.761  1.00  0.00    +0.000 C 
BRANCH   3   4
ATOM      4  C   UNL     1      17.031  55.558  11.704  1.00  0.00    +0.000 C 
BRANCH   4   5
ATOM      5  C   UNL     1      17.466  54.141  11.331  1.00  0.00    +0.001 C 
BRANCH   5   6
ATOM      6  C   UNL     1      17.199  53.095  12.419  1.00  0.00    +0.012 C 
BRANCH   6   7
ATOM      7  C   UNL     1      15.903  53.314  13.200  1.00  0.00    +0.122 C 
BRANCH   7   8
ATOM      8  C   UNL     1      16.100  53.364  14.692  1.00  0.00    +0.303 C 
ATOM      9  O   UNL     1      15.248  53.273  15.558  1.00  0.00    -0.252 OA
BRANCH   8  10
ATOM     10  O   UNL     1      17.400  53.490  15.023  1.00  0.00    -0.481 OA
ATOM     11  H   UNL     1      17.653  52.594  15.331  1.00  0.00    +0.296 HD
ENDBRANCH   8  10
ENDBRANCH   7   8
ENDBRANCH   6   7
ENDBRANCH   5   6
ENDBRANCH   4   5
ENDBRANCH   3   4
ENDBRANCH   2   3
ENDBRANCH   1   2
BRANCH   1  12
ATOM     12  C   UNL     1      15.692  59.237  13.172  1.00  0.00    -0.031 C 
ATOM     13  C   UNL     1      14.482  59.820  13.207  1.00  0.00    -0.031 C 
BRANCH  13  14
ATOM     14  C   UNL     1      13.159  59.198  12.858  1.00  0.00    +0.027 C 
BRANCH  14  15
ATOM     15  C   UNL     1      12.620  59.753  11.537  1.00  0.00    +0.004 C 
BRANCH  15  16
ATOM     16  C   UNL     1      11.325  60.555  11.698  1.00  0.00    +0.000 C 
BRANCH  16  17
ATOM     17  C   UNL     1      11.423  61.662  12.750  1.00  0.00    +0.000 C 
BRANCH  17  18
ATOM     18  C   UNL     1      11.436  63.047  12.097  1.00  0.00    -0.000 C 
BRANCH  18  19
ATOM     19  C   UNL     1      12.836  63.663  12.131  1.00  0.00    -0.000 C 
BRANCH  19  20
ATOM     20  C   UNL     1      12.863  65.131  11.702  1.00  0.00    -0.003 C 
ATOM     21  C   UNL     1      12.536  66.099  12.829  1.00  0.00    +0.004 C 
ENDBRANCH  19  20
ENDBRANCH  18  19
ENDBRANCH  17  18
ENDBRANCH  16  17
ENDBRANCH  15  16
ENDBRANCH  14  15
ENDBRANCH  13  14
ENDBRANCH   1  12
TORSDOF 16
ENDMDL
MODEL 6
REMARK VINA RESULT:    -6.786      3.595      8.328
REMARK INTER + INTRA:         -14.589
REMARK INTER:                 -12.891
REMARK INTRA:                  -1.698
REMARK UNBOUND:                -1.654
REMARK SMILES CCCCCCCC/C=C\CCCCCCCC(=O)O
REMARK SMILES IDX 11 1 12 2 13 3 14 4 15 5 16 6 17 7 18 8 19 9 20 10 10 12
REMARK SMILES IDX 9 13 8 14 7 15 6 16 5 17 4 18 3 19 2 20 1 21
REMARK H PARENT 20 11
ROOT
ATOM      1  C   UNL     1      13.866  56.509  12.800  1.00  0.00    +0.027 C 
ENDROOT
BRANCH   1   2
ATOM      2  C   UNL     1      13.918  55.022  13.160  1.00  0.00    +0.004 C 
BRANCH   2   3
ATOM      3  C   UNL     1      15.178  54.639  13.941  1.00  0.00    +0.000 C 
BRANCH   3   4
ATOM      4  C   UNL     1      15.938  53.506  13.245  1.00  0.00    +0.000 C 
BRANCH   4   5
ATOM      5  C   UNL     1      17.402  53.882  13.014  1.00  0.00    +0.001 C 
BRANCH   5   6
ATOM      6  C   UNL     1      18.009  54.753  14.120  1.00  0.00    +0.012 C 
BRANCH   6   7
ATOM      7  C   UNL     1      18.381  56.168  13.676  1.00  0.00    +0.122 C 
BRANCH   7   8
ATOM      8  C   UNL     1      19.199  56.921  14.690  1.00  0.00    +0.303 C 
ATOM      9  O   UNL     1      20.280  56.605  15.156  1.00  0.00    -0.252 OA
BRANCH   8  10
ATOM     10  O   UNL     1      18.617  58.083  15.045  1.00  0.00    -0.481 OA
ATOM     11  H   UNL     1      18.244  57.899  15.932  1.00  0.00    +0.296 HD
ENDBRANCH   8  10
ENDBRANCH   7   8
ENDBRANCH   6   7
ENDBRANCH   5   6
ENDBRANCH   4   5
ENDBRANCH   3   4
ENDBRANCH   2   3
ENDBRANCH   1   2
BRANCH   1  12
ATOM     12  C   UNL     1      15.104  56.984  12.091  1.00  0.00    -0.031 C 
ATOM     13  C   UNL     1      15.861  58.051  12.397  1.00  0.00    -0.031 C 
BRANCH  13  14
ATOM     14  C   UNL     1      15.622  59.057  13.489  1.00  0.00    +0.027 C 
BRANCH  14  15
ATOM     15  C   UNL     1      14.819  60.253  12.970  1.00  0.00    +0.004 C 
BRANCH  15  16
ATOM     16  C   UNL     1      13.319  60.149  13.260  1.00  0.00    +0.000 C 
BRANCH  16  17
ATOM     17  C   UNL     1      12.475  59.896  12.009  1.00  0.00    +0.000 C 
BRANCH  17  18
ATOM     18  C   UNL     1      11.350  60.928  11.882  1.00  0.00    -0.000 C 
BRANCH  18  19
ATOM     19  C   UNL     1      11.627  62.159  12.747  1.00  0.00    -0.000 C 
BRANCH  19  20
ATOM     20  C   UNL     1      12.310  63.296  11.985  1.00  0.00    -0.003 C 
ATOM     21  C   UNL     1      12.441  64.578  12.794  1.00  0.00    +0.004 C 
ENDBRANCH  19  20
ENDBRANCH  18  19
ENDBRANCH  17  18
ENDBRANCH  16  17
ENDBRANCH  15  16
ENDBRANCH  14  15
ENDBRANCH  13  14
ENDBRANCH   1  12
TORSDOF 16
ENDMDL
MODEL 7
REMARK VINA RESULT:    -6.676      1.226      1.708
REMARK INTER + INTRA:         -14.379
REMARK INTER:                 -12.641
REMARK INTRA:                  -1.738
REMARK UNBOUND:                -1.654
REMARK SMILES CCCCCCCC/C=C\CCCCCCCC(=O)O
REMARK SMILES IDX 11 1 12 2 13 3 14 4 15 5 16 6 17 7 18 8 19 9 20 10 10 12
REMARK SMILES IDX 9 13 8 14 7 15 6 16 5 17 4 18 3 19 2 20 1 21
REMARK H PARENT 20 11
ROOT
ATOM      1  C   UNL     1      14.978  59.451  13.573  1.00  0.00    +0.027 C 
ENDROOT
BRANCH   1   2
ATOM      2  C   UNL     1      14.405  60.663  12.833  1.00  0.00    +0.004 C 
BRANCH   2   3
ATOM      3  C   UNL     1      12.874  60.668  12.788  1.00  0.00    +0.000 C 
BRANCH   3   4
ATOM      4  C   UNL     1      12.311  62.018  13.239  1.00  0.00    +0.000 C 
BRANCH   4   5
ATOM      5  C   UNL     1      11.535  62.700  12.111  1.00  0.00    +0.001 C 
BRANCH   5   6
ATOM      6  C   UNL     1      11.643  64.229  12.110  1.00  0.00    +0.012 C 
BRANCH   6   7
ATOM      7  C   UNL     1      12.692  64.788  13.070  1.00  0.00    +0.122 C 
BRANCH   7   8
ATOM      8  C   UNL     1      12.107  65.604  14.192  1.00  0.00    +0.303 C 
ATOM      9  O   UNL     1      12.488  65.661  15.348  1.00  0.00    -0.252 OA
BRANCH   8  10
ATOM     10  O   UNL     1      11.068  66.356  13.779  1.00  0.00    -0.481 OA
ATOM     11  H   UNL     1      11.446  67.256  13.695  1.00  0.00    +0.296 HD
ENDBRANCH   8  10
ENDBRANCH   7   8
ENDBRANCH   6   7
ENDBRANCH   5   6
ENDBRANCH   4   5
ENDBRANCH   3   4
ENDBRANCH   2   3
ENDBRANCH   1   2
BRANCH   1  12
ATOM     12  C   UNL     1      15.582  58.431  12.647  1.00  0.00    -0.031 C 
ATOM     13  C   UNL     1      14.985  57.346  12.128  1.00  0.00    -0.031 C 
BRANCH  13  14
ATOM     14  C   UNL     1      13.587  56.860  12.390  1.00  0.00    +0.027 C 
BRANCH  14  15
ATOM     15  C   UNL     1      13.583  55.704  13.394  1.00  0.00    +0.004 C 
BRANCH  15  16
ATOM     16  C   UNL     1      14.661  54.654  13.114  1.00  0.00    +0.000 C 
BRANCH  16  17
ATOM     17  C   UNL     1      15.303  54.088  14.383  1.00  0.00    +0.000 C 
BRANCH  17  18
ATOM     18  C   UNL     1      16.818  54.311  14.383  1.00  0.00    -0.000 C 
BRANCH  18  19
ATOM     19  C   UNL     1      17.309  54.785  13.014  1.00  0.00    -0.000 C 
BRANCH  19  20
ATOM     20  C   UNL     1      18.359  55.895  13.097  1.00  0.00    -0.003 C 
ATOM     21  C   UNL     1      18.315  56.676  14.402  1.00  0.00    +0.004 C 
ENDBRANCH  19  20
ENDBRANCH  18  19
ENDBRANCH  17  18
ENDBRANCH  16  17
ENDBRANCH  15  16
ENDBRANCH  14  15
ENDBRANCH  13  14
ENDBRANCH   1  12
TORSDOF 16
ENDMDL
MODEL 8
REMARK VINA RESULT:    -6.672      1.473      3.438
REMARK INTER + INTRA:         -14.372
REMARK INTER:                 -13.247
REMARK INTRA:                  -1.125
REMARK UNBOUND:                -1.654
REMARK SMILES CCCCCCCC/C=C\CCCCCCCC(=O)O
REMARK SMILES IDX 11 1 12 2 13 3 14 4 15 5 16 6 17 7 18 8 19 9 20 10 10 12
REMARK SMILES IDX 9 13 8 14 7 15 6 16 5 17 4 18 3 19 2 20 1 21
REMARK H PARENT 20 11
ROOT
ATOM      1  C   UNL     1      11.686  60.413  11.304  1.00  0.00    +0.027 C 
ENDROOT
BRANCH   1   2
ATOM      2  C   UNL     1      11.351  61.477  12.353  1.00  0.00    +0.004 C 
BRANCH   2   3
ATOM      3  C   UNL     1      12.462  62.516  12.527  1.00  0.00    +0.000 C 
BRANCH   3   4
ATOM      4  C   UNL     1      12.004  63.901  12.061  1.00  0.00    +0.000 C 
BRANCH   4   5
ATOM      5  C   UNL     1      13.124  64.932  12.204  1.00  0.00    +0.001 C 
BRANCH   5   6
ATOM      6  C   UNL     1      12.842  66.024  13.242  1.00  0.00    +0.012 C 
BRANCH   6   7
ATOM      7  C   UNL     1      11.475  65.915  13.918  1.00  0.00    +0.122 C 
BRANCH   7   8
ATOM      8  C   UNL     1      11.534  66.038  15.417  1.00  0.00    +0.303 C 
ATOM      9  O   UNL     1      10.611  66.256  16.183  1.00  0.00    -0.252 OA
BRANCH   8  10
ATOM     10  O   UNL     1      12.779  65.837  15.890  1.00  0.00    -0.481 OA
ATOM     11  H   UNL     1      13.361  66.157  15.169  1.00  0.00    +0.296 HD
ENDBRANCH   8  10
ENDBRANCH   7   8
ENDBRANCH   6   7
ENDBRANCH   5   6
ENDBRANCH   4   5
ENDBRANCH   3   4
ENDBRANCH   2   3
ENDBRANCH   1   2
BRANCH   1  12
ATOM     12  C   UNL     1      12.050  59.086  11.909  1.00  0.00    -0.031 C 
ATOM     13  C   UNL     1      13.269  58.667  12.286  1.00  0.00    -0.031 C 
BRANCH  13  14
ATOM     14  C   UNL     1      14.571  59.405  12.143  1.00  0.00    +0.027 C 
BRANCH  14  15
ATOM     15  C   UNL     1      15.272  59.554  13.495  1.00  0.00    +0.004 C 
BRANCH  15  16
ATOM     16  C   UNL     1      16.554  58.725  13.610  1.00  0.00    +0.000 C 
BRANCH  16  17
ATOM     17  C   UNL     1      16.506  57.417  12.816  1.00  0.00    +0.000 C 
BRANCH  17  18
ATOM     18  C   UNL     1      17.613  56.457  13.262  1.00  0.00    -0.000 C 
BRANCH  18  19
ATOM     19  C   UNL     1      17.236  55.003  12.970  1.00  0.00    -0.000 C 
BRANCH  19  20
ATOM     20  C   UNL     1      15.726  54.776  12.870  1.00  0.00    -0.003 C 
ATOM     21  C   UNL     1      15.109  54.230  14.148  1.00  0.00    +0.004 C 
ENDBRANCH  19  20
ENDBRANCH  18  19
ENDBRANCH  17  18
ENDBRANCH  16  17
ENDBRANCH  15  16
ENDBRANCH  14  15
ENDBRANCH  13  14
ENDBRANCH   1  12
TORSDOF 16
ENDMDL
MODEL 9
REMARK VINA RESULT:    -6.541      3.794      5.519
REMARK INTER + INTRA:         -14.122
REMARK INTER:                 -13.298
REMARK INTRA:                  -0.824
REMARK UNBOUND:                -1.654
REMARK SMILES CCCCCCCC/C=C\CCCCCCCC(=O)O
REMARK SMILES IDX 11 1 12 2 13 3 14 4 15 5 16 6 17 7 18 8 19 9 20 10 10 12
REMARK SMILES IDX 9 13 8 14 7 15 6 16 5 17 4 18 3 19 2 20 1 21
REMARK H PARENT 20 11
ROOT
ATOM      1  C   UNL     1      17.073  55.422  13.261  1.00  0.00    +0.027 C 
ENDROOT
BRANCH   1   2
ATOM      2  C   UNL     1      17.294  56.932  13.126  1.00  0.00    +0.004 C 
BRANCH   2   3
ATOM      3  C   UNL     1      16.003  57.701  12.828  1.00  0.00    +0.000 C 
BRANCH   3   4
ATOM      4  C   UNL     1      16.136  59.176  13.218  1.00  0.00    +0.000 C 
BRANCH   4   5
ATOM      5  C   UNL     1      14.821  59.721  13.776  1.00  0.00    +0.001 C 
BRANCH   5   6
ATOM      6  C   UNL     1      13.582  59.329  12.962  1.00  0.00    +0.012 C 
BRANCH   6   7
ATOM      7  C   UNL     1      12.736  60.513  12.492  1.00  0.00    +0.122 C 
BRANCH   7   8
ATOM      8  C   UNL     1      11.471  60.105  11.786  1.00  0.00    +0.303 C 
ATOM      9  O   UNL     1      11.317  59.174  11.014  1.00  0.00    -0.252 OA
BRANCH   8  10
ATOM     10  O   UNL     1      10.429  60.887  12.126  1.00  0.00    -0.481 OA
ATOM     11  H   UNL     1      10.310  61.474  11.350  1.00  0.00    +0.296 HD
ENDBRANCH   8  10
ENDBRANCH   7   8
ENDBRANCH   6   7
ENDBRANCH   5   6
ENDBRANCH   4   5
ENDBRANCH   3   4
ENDBRANCH   2   3
ENDBRANCH   1   2
BRANCH   1  12
ATOM     12  C   UNL     1      15.652  55.011  12.991  1.00  0.00    -0.031 C 
ATOM     13  C   UNL     1      14.872  54.225  13.750  1.00  0.00    -0.031 C 
BRANCH  13  14
ATOM     14  C   UNL     1      15.249  53.524  15.025  1.00  0.00    +0.027 C 
BRANCH  14  15
ATOM     15  C   UNL     1      15.761  52.109  14.747  1.00  0.00    +0.004 C 
BRANCH  15  16
ATOM     16  C   UNL     1      16.022  51.296  16.018  1.00  0.00    +0.000 C 
BRANCH  16  17
ATOM     17  C   UNL     1      14.768  50.619  16.575  1.00  0.00    +0.000 C 
BRANCH  17  18
ATOM     18  C   UNL     1      15.023  49.137  16.869  1.00  0.00    -0.000 C 
BRANCH  18  19
ATOM     19  C   UNL     1      14.712  48.801  18.329  1.00  0.00    -0.000 C 
BRANCH  19  20
ATOM     20  C   UNL     1      13.524  49.584  18.892  1.00  0.00    -0.003 C 
ATOM     21  C   UNL     1      12.762  48.835  19.975  1.00  0.00    +0.004 C 
ENDBRANCH  19  20
ENDBRANCH  18  19
ENDBRANCH  17  18
ENDBRANCH  16  17
ENDBRANCH  15  16
ENDBRANCH  14  15
ENDBRANCH  13  14
ENDBRANCH   1  12
TORSDOF 16
ENDMDL
MODEL 10
REMARK VINA RESULT:    -6.443      3.528      8.657
REMARK INTER + INTRA:         -13.935
REMARK INTER:                 -12.594
REMARK INTRA:                  -1.341
REMARK UNBOUND:                -1.654
REMARK SMILES CCCCCCCC/C=C\CCCCCCCC(=O)O
REMARK SMILES IDX 11 1 12 2 13 3 14 4 15 5 16 6 17 7 18 8 19 9 20 10 10 12
REMARK SMILES IDX 9 13 8 14 7 15 6 16 5 17 4 18 3 19 2 20 1 21
REMARK H PARENT 20 11
ROOT
ATOM      1  C   UNL     1      17.576  58.399  14.292  1.00  0.00    +0.027 C 
ENDROOT
BRANCH   1   2
ATOM      2  C   UNL     1      18.640  57.364  14.669  1.00  0.00    +0.004 C 
BRANCH   2   3
ATOM      3  C   UNL     1      18.570  56.096  13.813  1.00  0.00    +0.000 C 
BRANCH   3   4
ATOM      4  C   UNL     1      18.581  54.838  14.686  1.00  0.00    +0.000 C 
BRANCH   4   5
ATOM      5  C   UNL     1      17.492  53.855  14.255  1.00  0.00    +0.001 C 
BRANCH   5   6
ATOM      6  C   UNL     1      16.076  54.261  14.681  1.00  0.00    +0.012 C 
BRANCH   6   7
ATOM      7  C   UNL     1      14.993  53.950  13.646  1.00  0.00    +0.122 C 
BRANCH   7   8
ATOM      8  C   UNL     1      14.882  54.990  12.563  1.00  0.00    +0.303 C 
ATOM      9  O   UNL     1      15.626  55.156  11.612  1.00  0.00    -0.252 OA
BRANCH   8  10
ATOM     10  O   UNL     1      13.788  55.760  12.716  1.00  0.00    -0.481 OA
ATOM     11  H   UNL     1      13.512  55.965  11.798  1.00  0.00    +0.296 HD
ENDBRANCH   8  10
ENDBRANCH   7   8
ENDBRANCH   6   7
ENDBRANCH   5   6
ENDBRANCH   4   5
ENDBRANCH   3   4
ENDBRANCH   2   3
ENDBRANCH   1   2
BRANCH   1  12
ATOM     12  C   UNL     1      16.689  57.946  13.166  1.00  0.00    -0.031 C 
ATOM     13  C   UNL     1      15.688  58.631  12.589  1.00  0.00    -0.031 C 
BRANCH  13  14
ATOM     14  C   UNL     1      15.180  59.995  12.965  1.00  0.00    +0.027 C 
BRANCH  14  15
ATOM     15  C   UNL     1      13.953  59.895  13.875  1.00  0.00    +0.004 C 
BRANCH  15  16
ATOM     16  C   UNL     1      12.877  60.938  13.560  1.00  0.00    +0.000 C 
BRANCH  16  17
ATOM     17  C   UNL     1      12.235  60.753  12.184  1.00  0.00    +0.000 C 
BRANCH  17  18
ATOM     18  C   UNL     1      11.591  62.053  11.694  1.00  0.00    -0.000 C 
BRANCH  18  19
ATOM     19  C   UNL     1      12.221  63.272  12.371  1.00  0.00    -0.000 C 
BRANCH  19  20
ATOM     20  C   UNL     1      11.827  64.599  11.719  1.00  0.00    -0.003 C 
ATOM     21  C   UNL     1      12.809  65.727  11.995  1.00  0.00    +0.004 C 
ENDBRANCH  19  20
ENDBRANCH  18  19
ENDBRANCH  17  18
ENDBRANCH  16  17
ENDBRANCH  15  16
ENDBRANCH  14  15
ENDBRANCH  13  14
ENDBRANCH   1  12
TORSDOF 16
ENDMDL
