MODEL 1
REMARK VINA RESULT:    -5.969      0.000      0.000
REMARK INTER + INTRA:          -7.239
REMARK INTER:                  -7.190
REMARK INTRA:                  -0.049
REMARK UNBOUND:                -0.049
REMARK SMILES O=C(O)[C@]1(O)C[C@@H](O)[C@@H](O)[C@H](O)C1
REMARK SMILES IDX 4 1 13 2 11 3 9 4 7 5 6 6 2 7 1 8 3 9 5 11 12 13 8 15 10 17
REMARK H PARENT 3 10 5 12 12 14 8 16 10 18
ROOT
ATOM      1  C   UNL     1      16.945  55.102  11.710  1.00  0.00    +0.166 C 
ATOM      2  C   UNL     1      17.580  53.700  11.782  1.00  0.00    +0.082 C 
ATOM      3  C   UNL     1      17.481  53.050  13.163  1.00  0.00    +0.149 C 
ATOM      4  C   UNL     1      16.067  53.133  13.745  1.00  0.00    +0.171 C 
ATOM      5  C   UNL     1      15.509  54.561  13.712  1.00  0.00    +0.149 C 
ATOM      6  C   UNL     1      15.527  55.117  12.290  1.00  0.00    +0.082 C 
ENDROOT
BRANCH   1   7
ATOM      7  C   UNL     1      16.948  55.561  10.244  1.00  0.00    +0.335 C 
ATOM      8  O   UNL     1      17.370  56.629   9.828  1.00  0.00    -0.249 OA
BRANCH   7   9
ATOM      9  O   UNL     1      16.479  54.640   9.379  1.00  0.00    -0.479 OA
ATOM     10  H   UNL     1      17.016  53.842   9.570  1.00  0.00    +0.296 HD
ENDBRANCH   7   9
ENDBRANCH   1   7
BRANCH   1  11
ATOM     11  O   UNL     1      17.710  56.032  12.484  1.00  0.00    -0.378 OA
ATOM     12  H   UNL     1      18.299  55.517  13.066  1.00  0.00    +0.212 HD
ENDBRANCH   1  11
BRANCH   3  13
ATOM     13  O   UNL     1      18.414  53.667  14.053  1.00  0.00    -0.390 OA
ATOM     14  H   UNL     1      18.815  54.393  13.531  1.00  0.00    +0.211 HD
ENDBRANCH   3  13
BRANCH   5  15
ATOM     15  O   UNL     1      14.160  54.517  14.198  1.00  0.00    -0.390 OA
ATOM     16  H   UNL     1      14.082  55.215  14.874  1.00  0.00    +0.211 HD
ENDBRANCH   5  15
BRANCH   4  17
ATOM     17  O   UNL     1      16.097  52.672  15.105  1.00  0.00    -0.388 OA
ATOM     18  H   UNL     1      15.164  52.712  15.400  1.00  0.00    +0.211 HD
ENDBRANCH   4  17
TORSDOF 6
ENDMDL
MODEL 2
REMARK VINA RESULT:    -5.919      2.280      3.129
REMARK INTER + INTRA:          -7.179
REMARK INTER:                  -7.128
REMARK INTRA:                  -0.051
REMARK UNBOUND:                -0.049
REMARK SMILES O=C(O)[C@]1(O)C[C@@H](O)[C@@H](O)[C@H](O)C1
REMARK SMILES IDX 4 1 13 2 11 3 9 4 7 5 6 6 2 7 1 8 3 9 5 11 12 13 8 15 10 17
REMARK H PARENT 3 10 5 12 12 14 8 16 10 18
ROOT
ATOM      1  C   UNL     1      16.675  56.147  12.742  1.00  0.00    +0.166 C 
ATOM      2  C   UNL     1      16.216  54.858  13.453  1.00  0.00    +0.082 C 
ATOM      3  C   UNL     1      17.355  54.082  14.114  1.00  0.00    +0.149 C 
ATOM      4  C   UNL     1      18.259  54.982  14.962  1.00  0.00    +0.171 C 
ATOM      5  C   UNL     1      18.742  56.213  14.186  1.00  0.00    +0.149 C 
ATOM      6  C   UNL     1      17.559  57.013  13.645  1.00  0.00    +0.082 C 
ENDROOT
BRANCH   1   7
ATOM      7  C   UNL     1      15.428  56.917  12.284  1.00  0.00    +0.335 C 
ATOM      8  O   UNL     1      15.353  58.126  12.115  1.00  0.00    -0.249 OA
BRANCH   7   9
ATOM      9  O   UNL     1      14.367  56.133  12.010  1.00  0.00    -0.479 OA
ATOM     10  H   UNL     1      13.713  56.751  11.617  1.00  0.00    +0.296 HD
ENDBRANCH   7   9
ENDBRANCH   1   7
BRANCH   1  11
ATOM     11  O   UNL     1      17.463  55.823  11.592  1.00  0.00    -0.378 OA
ATOM     12  H   UNL     1      16.965  56.106  10.804  1.00  0.00    +0.212 HD
ENDBRANCH   1  11
BRANCH   3  13
ATOM     13  O   UNL     1      18.129  53.416  13.112  1.00  0.00    -0.390 OA
ATOM     14  H   UNL     1      18.932  53.108  13.580  1.00  0.00    +0.211 HD
ENDBRANCH   3  13
BRANCH   5  15
ATOM     15  O   UNL     1      19.506  57.028  15.086  1.00  0.00    -0.390 OA
ATOM     16  H   UNL     1      20.174  56.447  15.493  1.00  0.00    +0.211 HD
ENDBRANCH   5  15
BRANCH   4  17
ATOM     17  O   UNL     1      19.398  54.222  15.394  1.00  0.00    -0.388 OA
ATOM     18  H   UNL     1      19.283  54.134  16.363  1.00  0.00    +0.211 HD
ENDBRANCH   4  17
TORSDOF 6
ENDMDL
MODEL 3
REMARK VINA RESULT:    -5.326      2.320      3.627
REMARK INTER + INTRA:          -6.465
REMARK INTER:                  -6.418
REMARK INTRA:                  -0.047
REMARK UNBOUND:                -0.049
REMARK SMILES O=C(O)[C@]1(O)C[C@@H](O)[C@@H](O)[C@H](O)C1
REMARK SMILES IDX 4 1 13 2 11 3 9 4 7 5 6 6 2 7 1 8 3 9 5 11 12 13 8 15 10 17
REMARK H PARENT 3 10 5 12 12 14 8 16 10 18
ROOT
ATOM      1  C   UNL     1      15.809  56.783  12.443  1.00  0.00    +0.166 C 
ATOM      2  C   UNL     1      16.708  56.130  13.511  1.00  0.00    +0.082 C 
ATOM      3  C   UNL     1      17.107  54.690  13.183  1.00  0.00    +0.149 C 
ATOM      4  C   UNL     1      17.621  54.541  11.748  1.00  0.00    +0.171 C 
ATOM      5  C   UNL     1      16.656  55.146  10.721  1.00  0.00    +0.149 C 
ATOM      6  C   UNL     1      16.384  56.616  11.033  1.00  0.00    +0.082 C 
ENDROOT
BRANCH   1   7
ATOM      7  C   UNL     1      15.635  58.267  12.798  1.00  0.00    +0.335 C 
ATOM      8  O   UNL     1      16.350  58.913  13.548  1.00  0.00    -0.249 OA
BRANCH   7   9
ATOM      9  O   UNL     1      14.617  58.871  12.153  1.00  0.00    -0.479 OA
ATOM     10  H   UNL     1      15.061  59.417  11.470  1.00  0.00    +0.296 HD
ENDBRANCH   7   9
ENDBRANCH   1   7
BRANCH   1  11
ATOM     11  O   UNL     1      14.521  56.159  12.432  1.00  0.00    -0.378 OA
ATOM     12  H   UNL     1      13.857  56.848  12.619  1.00  0.00    +0.212 HD
ENDBRANCH   1  11
BRANCH   3  13
ATOM     13  O   UNL     1      15.991  53.822  13.396  1.00  0.00    -0.390 OA
ATOM     14  H   UNL     1      15.524  54.200  14.171  1.00  0.00    +0.211 HD
ENDBRANCH   3  13
BRANCH   5  15
ATOM     15  O   UNL     1      17.264  55.031   9.427  1.00  0.00    -0.390 OA
ATOM     16  H   UNL     1      16.538  54.982   8.778  1.00  0.00    +0.211 HD
ENDBRANCH   5  15
BRANCH   4  17
ATOM     17  O   UNL     1      17.797  53.145  11.461  1.00  0.00    -0.388 OA
ATOM     18  H   UNL     1      18.089  52.754  12.311  1.00  0.00    +0.211 HD
ENDBRANCH   4  17
TORSDOF 6
ENDMDL
MODEL 4
REMARK VINA RESULT:    -5.155      1.264      4.508
REMARK INTER + INTRA:          -6.259
REMARK INTER:                  -6.210
REMARK INTRA:                  -0.049
REMARK UNBOUND:                -0.049
REMARK SMILES O=C(O)[C@]1(O)C[C@@H](O)[C@@H](O)[C@H](O)C1
REMARK SMILES IDX 4 1 13 2 11 3 9 4 7 5 6 6 2 7 1 8 3 9 5 11 12 13 8 15 10 17
REMARK H PARENT 3 10 5 12 12 14 8 16 10 18
ROOT
ATOM      1  C   UNL     1      16.590  53.944  14.146  1.00  0.00    +0.166 C 
ATOM      2  C   UNL     1      15.481  54.972  13.852  1.00  0.00    +0.082 C 
ATOM      3  C   UNL     1      15.828  55.946  12.725  1.00  0.00    +0.149 C 
ATOM      4  C   UNL     1      16.371  55.231  11.484  1.00  0.00    +0.171 C 
ATOM      5  C   UNL     1      17.517  54.272  11.823  1.00  0.00    +0.149 C 
ATOM      6  C   UNL     1      17.078  53.250  12.870  1.00  0.00    +0.082 C 
ENDROOT
BRANCH   1   7
ATOM      7  C   UNL     1      16.049  52.923  15.158  1.00  0.00    +0.335 C 
ATOM      8  O   UNL     1      14.976  52.990  15.740  1.00  0.00    -0.249 OA
BRANCH   7   9
ATOM      9  O   UNL     1      16.848  51.853  15.341  1.00  0.00    -0.479 OA
ATOM     10  H   UNL     1      17.749  52.239  15.396  1.00  0.00    +0.296 HD
ENDBRANCH   7   9
ENDBRANCH   1   7
BRANCH   1  11
ATOM     11  O   UNL     1      17.730  54.595  14.715  1.00  0.00    -0.378 OA
ATOM     12  H   UNL     1      18.352  54.789  13.990  1.00  0.00    +0.212 HD
ENDBRANCH   1  11
BRANCH   3  13
ATOM     13  O   UNL     1      16.780  56.904  13.195  1.00  0.00    -0.390 OA
ATOM     14  H   UNL     1      16.611  57.708  12.660  1.00  0.00    +0.211 HD
ENDBRANCH   3  13
BRANCH   5  15
ATOM     15  O   UNL     1      17.896  53.596  10.616  1.00  0.00    -0.390 OA
ATOM     16  H   UNL     1      17.675  52.654  10.740  1.00  0.00    +0.211 HD
ENDBRANCH   5  15
BRANCH   4  17
ATOM     17  O   UNL     1      16.842  56.216  10.551  1.00  0.00    -0.388 OA
ATOM     18  H   UNL     1      16.044  56.730  10.311  1.00  0.00    +0.211 HD
ENDBRANCH   4  17
TORSDOF 6
ENDMDL
MODEL 5
REMARK VINA RESULT:    -5.098      7.663     10.659
REMARK INTER + INTRA:          -6.191
REMARK INTER:                  -6.147
REMARK INTRA:                  -0.044
REMARK UNBOUND:                -0.049
REMARK SMILES O=C(O)[C@]1(O)C[C@@H](O)[C@@H](O)[C@H](O)C1
REMARK SMILES IDX 4 1 13 2 11 3 9 4 7 5 6 6 2 7 1 8 3 9 5 11 12 13 8 15 10 17
REMARK H PARENT 3 10 5 12 12 14 8 16 10 18
ROOT
ATOM      1  C   UNL     1      14.642  47.316  20.066  1.00  0.00    +0.166 C 
ATOM      2  C   UNL     1      13.263  47.782  19.559  1.00  0.00    +0.082 C 
ATOM      3  C   UNL     1      13.290  49.146  18.868  1.00  0.00    +0.149 C 
ATOM      4  C   UNL     1      14.411  49.251  17.830  1.00  0.00    +0.171 C 
ATOM      5  C   UNL     1      15.773  48.842  18.405  1.00  0.00    +0.149 C 
ATOM      6  C   UNL     1      15.716  47.428  18.979  1.00  0.00    +0.082 C 
ENDROOT
BRANCH   1   7
ATOM      7  C   UNL     1      14.511  45.871  20.568  1.00  0.00    +0.335 C 
ATOM      8  O   UNL     1      14.196  44.903  19.892  1.00  0.00    -0.249 OA
BRANCH   7   9
ATOM      9  O   UNL     1      14.833  45.709  21.866  1.00  0.00    -0.479 OA
ATOM     10  H   UNL     1      15.061  44.757  21.935  1.00  0.00    +0.296 HD
ENDBRANCH   7   9
ENDBRANCH   1   7
BRANCH   1  11
ATOM     11  O   UNL     1      15.074  48.143  21.151  1.00  0.00    -0.378 OA
ATOM     12  H   UNL     1      16.009  48.370  20.994  1.00  0.00    +0.212 HD
ENDBRANCH   1  11
BRANCH   3  13
ATOM     13  O   UNL     1      13.430  50.178  19.847  1.00  0.00    -0.390 OA
ATOM     14  H   UNL     1      12.543  50.591  19.905  1.00  0.00    +0.211 HD
ENDBRANCH   3  13
BRANCH   5  15
ATOM     15  O   UNL     1      16.733  48.894  17.341  1.00  0.00    -0.390 OA
ATOM     16  H   UNL     1      16.237  49.090  16.525  1.00  0.00    +0.211 HD
ENDBRANCH   5  15
BRANCH   4  17
ATOM     17  O   UNL     1      14.487  50.607  17.364  1.00  0.00    -0.388 OA
ATOM     18  H   UNL     1      13.882  50.637  16.594  1.00  0.00    +0.211 HD
ENDBRANCH   4  17
TORSDOF 6
ENDMDL
MODEL 6
REMARK VINA RESULT:    -5.082     11.738     13.190
REMARK INTER + INTRA:          -6.171
REMARK INTER:                  -6.127
REMARK INTRA:                  -0.044
REMARK UNBOUND:                -0.049
REMARK SMILES O=C(O)[C@]1(O)C[C@@H](O)[C@@H](O)[C@H](O)C1
REMARK SMILES IDX 4 1 13 2 11 3 9 4 7 5 6 6 2 7 1 8 3 9 5 11 12 13 8 15 10 17
REMARK H PARENT 3 10 5 12 12 14 8 16 10 18
ROOT
ATOM      1  C   UNL     1      20.356  51.048  23.767  1.00  0.00    +0.166 C 
ATOM      2  C   UNL     1      21.158  52.063  22.929  1.00  0.00    +0.082 C 
ATOM      3  C   UNL     1      21.163  53.476  23.514  1.00  0.00    +0.149 C 
ATOM      4  C   UNL     1      21.498  53.486  25.008  1.00  0.00    +0.171 C 
ATOM      5  C   UNL     1      20.626  52.509  25.805  1.00  0.00    +0.149 C 
ATOM      6  C   UNL     1      20.748  51.093  25.247  1.00  0.00    +0.082 C 
ENDROOT
BRANCH   1   7
ATOM      7  C   UNL     1      20.581  49.648  23.177  1.00  0.00    +0.335 C 
ATOM      8  O   UNL     1      21.622  49.009  23.224  1.00  0.00    -0.249 OA
BRANCH   7   9
ATOM      9  O   UNL     1      19.483  49.105  22.615  1.00  0.00    -0.479 OA
ATOM     10  H   UNL     1      19.835  48.600  21.851  1.00  0.00    +0.296 HD
ENDBRANCH   7   9
ENDBRANCH   1   7
BRANCH   1  11
ATOM     11  O   UNL     1      18.959  51.352  23.708  1.00  0.00    -0.378 OA
ATOM     12  H   UNL     1      18.846  52.101  23.094  1.00  0.00    +0.212 HD
ENDBRANCH   1  11
BRANCH   3  13
ATOM     13  O   UNL     1      19.891  54.092  23.292  1.00  0.00    -0.390 OA
ATOM     14  H   UNL     1      19.492  54.170  24.184  1.00  0.00    +0.211 HD
ENDBRANCH   3  13
BRANCH   5  15
ATOM     15  O   UNL     1      21.072  52.533  27.168  1.00  0.00    -0.390 OA
ATOM     16  H   UNL     1      20.733  53.358  27.560  1.00  0.00    +0.211 HD
ENDBRANCH   5  15
BRANCH   4  17
ATOM     17  O   UNL     1      21.303  54.815  25.518  1.00  0.00    -0.388 OA
ATOM     18  H   UNL     1      21.254  55.380  24.719  1.00  0.00    +0.211 HD
ENDBRANCH   4  17
TORSDOF 6
ENDMDL
MODEL 7
REMARK VINA RESULT:    -4.752      8.067     10.101
REMARK INTER + INTRA:          -5.773
REMARK INTER:                  -5.721
REMARK INTRA:                  -0.052
REMARK UNBOUND:                -0.049
REMARK SMILES O=C(O)[C@]1(O)C[C@@H](O)[C@@H](O)[C@H](O)C1
REMARK SMILES IDX 4 1 13 2 11 3 9 4 7 5 6 6 2 7 1 8 3 9 5 11 12 13 8 15 10 17
REMARK H PARENT 3 10 5 12 12 14 8 16 10 18
ROOT
ATOM      1  C   UNL     1      15.444  48.212  18.913  1.00  0.00    +0.166 C 
ATOM      2  C   UNL     1      14.797  48.481  20.285  1.00  0.00    +0.082 C 
ATOM      3  C   UNL     1      15.562  47.866  21.458  1.00  0.00    +0.149 C 
ATOM      4  C   UNL     1      17.062  48.170  21.397  1.00  0.00    +0.171 C 
ATOM      5  C   UNL     1      17.669  47.820  20.033  1.00  0.00    +0.149 C 
ATOM      6  C   UNL     1      16.938  48.552  18.910  1.00  0.00    +0.082 C 
ENDROOT
BRANCH   1   7
ATOM      7  C   UNL     1      14.689  49.028  17.853  1.00  0.00    +0.335 C 
ATOM      8  O   UNL     1      14.512  48.702  16.688  1.00  0.00    -0.249 OA
BRANCH   7   9
ATOM      9  O   UNL     1      14.151  50.172  18.320  1.00  0.00    -0.479 OA
ATOM     10  H   UNL     1      13.239  50.169  17.957  1.00  0.00    +0.296 HD
ENDBRANCH   7   9
ENDBRANCH   1   7
BRANCH   1  11
ATOM     11  O   UNL     1      15.342  46.824  18.582  1.00  0.00    -0.378 OA
ATOM     12  H   UNL     1      14.682  46.737  17.871  1.00  0.00    +0.212 HD
ENDBRANCH   1  11
BRANCH   3  13
ATOM     13  O   UNL     1      15.349  46.453  21.482  1.00  0.00    -0.390 OA
ATOM     14  H   UNL     1      14.376  46.346  21.517  1.00  0.00    +0.211 HD
ENDBRANCH   3  13
BRANCH   5  15
ATOM     15  O   UNL     1      19.048  48.217  20.052  1.00  0.00    -0.390 OA
ATOM     16  H   UNL     1      19.575  47.407  19.931  1.00  0.00    +0.211 HD
ENDBRANCH   5  15
BRANCH   4  17
ATOM     17  O   UNL     1      17.730  47.412  22.418  1.00  0.00    -0.388 OA
ATOM     18  H   UNL     1      17.013  47.123  23.019  1.00  0.00    +0.211 HD
ENDBRANCH   4  17
TORSDOF 6
ENDMDL
MODEL 8
REMARK VINA RESULT:    -4.687      8.607     10.783
REMARK INTER + INTRA:          -5.696
REMARK INTER:                  -5.648
REMARK INTRA:                  -0.047
REMARK UNBOUND:                -0.049
REMARK SMILES O=C(O)[C@]1(O)C[C@@H](O)[C@@H](O)[C@H](O)C1
REMARK SMILES IDX 4 1 13 2 11 3 9 4 7 5 6 6 2 7 1 8 3 9 5 11 12 13 8 15 10 17
REMARK H PARENT 3 10 5 12 12 14 8 16 10 18
ROOT
ATOM      1  C   UNL     1      17.106  47.876  19.593  1.00  0.00    +0.166 C 
ATOM      2  C   UNL     1      18.349  47.070  20.019  1.00  0.00    +0.082 C 
ATOM      3  C   UNL     1      18.086  46.094  21.166  1.00  0.00    +0.149 C 
ATOM      4  C   UNL     1      16.833  45.245  20.932  1.00  0.00    +0.171 C 
ATOM      5  C   UNL     1      15.611  46.100  20.578  1.00  0.00    +0.149 C 
ATOM      6  C   UNL     1      15.893  46.971  19.356  1.00  0.00    +0.082 C 
ENDROOT
BRANCH   1   7
ATOM      7  C   UNL     1      17.456  48.673  18.328  1.00  0.00    +0.335 C 
ATOM      8  O   UNL     1      16.813  48.689  17.289  1.00  0.00    -0.249 OA
BRANCH   7   9
ATOM      9  O   UNL     1      18.553  49.448  18.452  1.00  0.00    -0.479 OA
ATOM     10  H   UNL     1      18.212  50.277  18.851  1.00  0.00    +0.296 HD
ENDBRANCH   7   9
ENDBRANCH   1   7
BRANCH   1  11
ATOM     11  O   UNL     1      16.734  48.793  20.626  1.00  0.00    -0.378 OA
ATOM     12  H   UNL     1      16.215  48.298  21.286  1.00  0.00    +0.212 HD
ENDBRANCH   1  11
BRANCH   3  13
ATOM     13  O   UNL     1      17.966  46.817  22.394  1.00  0.00    -0.390 OA
ATOM     14  H   UNL     1      18.198  46.168  23.090  1.00  0.00    +0.211 HD
ENDBRANCH   3  13
BRANCH   5  15
ATOM     15  O   UNL     1      14.519  45.213  20.299  1.00  0.00    -0.390 OA
ATOM     16  H   UNL     1      14.888  44.311  20.281  1.00  0.00    +0.211 HD
ENDBRANCH   5  15
BRANCH   4  17
ATOM     17  O   UNL     1      16.552  44.494  22.124  1.00  0.00    -0.388 OA
ATOM     18  H   UNL     1      16.775  43.569  21.890  1.00  0.00    +0.211 HD
ENDBRANCH   4  17
TORSDOF 6
ENDMDL
MODEL 9
REMARK VINA RESULT:    -4.652      6.926      8.542
REMARK INTER + INTRA:          -5.653
REMARK INTER:                  -5.599
REMARK INTRA:                  -0.054
REMARK UNBOUND:                -0.049
REMARK SMILES O=C(O)[C@]1(O)C[C@@H](O)[C@@H](O)[C@H](O)C1
REMARK SMILES IDX 4 1 13 2 11 3 9 4 7 5 6 6 2 7 1 8 3 9 5 11 12 13 8 15 10 17
REMARK H PARENT 3 10 5 12 12 14 8 16 10 18
ROOT
ATOM      1  C   UNL     1      16.139  48.677  17.901  1.00  0.00    +0.166 C 
ATOM      2  C   UNL     1      15.889  49.905  17.004  1.00  0.00    +0.082 C 
ATOM      3  C   UNL     1      14.422  50.098  16.619  1.00  0.00    +0.149 C 
ATOM      4  C   UNL     1      13.486  49.998  17.827  1.00  0.00    +0.171 C 
ATOM      5  C   UNL     1      13.729  48.726  18.646  1.00  0.00    +0.149 C 
ATOM      6  C   UNL     1      15.185  48.643  19.100  1.00  0.00    +0.082 C 
ENDROOT
BRANCH   1   7
ATOM      7  C   UNL     1      17.603  48.702  18.361  1.00  0.00    +0.335 C 
ATOM      8  O   UNL     1      18.197  47.789  18.917  1.00  0.00    -0.249 OA
BRANCH   7   9
ATOM      9  O   UNL     1      18.258  49.838  18.049  1.00  0.00    -0.479 OA
ATOM     10  H   UNL     1      17.981  50.469  18.748  1.00  0.00    +0.296 HD
ENDBRANCH   7   9
ENDBRANCH   1   7
BRANCH   1  11
ATOM     11  O   UNL     1      15.908  47.471  17.165  1.00  0.00    -0.378 OA
ATOM     12  H   UNL     1      15.019  47.147  17.401  1.00  0.00    +0.212 HD
ENDBRANCH   1  11
BRANCH   3  13
ATOM     13  O   UNL     1      14.053  49.131  15.632  1.00  0.00    -0.390 OA
ATOM     14  H   UNL     1      13.113  48.929  15.819  1.00  0.00    +0.211 HD
ENDBRANCH   3  13
BRANCH   5  15
ATOM     15  O   UNL     1      12.867  48.769  19.792  1.00  0.00    -0.390 OA
ATOM     16  H   UNL     1      11.971  48.965  19.462  1.00  0.00    +0.211 HD
ENDBRANCH   5  15
BRANCH   4  17
ATOM     17  O   UNL     1      12.126  50.005  17.361  1.00  0.00    -0.388 OA
ATOM     18  H   UNL     1      11.984  50.916  17.030  1.00  0.00    +0.211 HD
ENDBRANCH   4  17
TORSDOF 6
ENDMDL
MODEL 10
REMARK VINA RESULT:    -4.592      8.445     10.371
REMARK INTER + INTRA:          -5.581
REMARK INTER:                  -5.528
REMARK INTRA:                  -0.053
REMARK UNBOUND:                -0.049
REMARK SMILES O=C(O)[C@]1(O)C[C@@H](O)[C@@H](O)[C@H](O)C1
REMARK SMILES IDX 4 1 13 2 11 3 9 4 7 5 6 6 2 7 1 8 3 9 5 11 12 13 8 15 10 17
REMARK H PARENT 3 10 5 12 12 14 8 16 10 18
ROOT
ATOM      1  C   UNL     1      14.809  48.304  19.377  1.00  0.00    +0.166 C 
ATOM      2  C   UNL     1      16.239  48.049  18.861  1.00  0.00    +0.082 C 
ATOM      3  C   UNL     1      17.187  47.495  19.924  1.00  0.00    +0.149 C 
ATOM      4  C   UNL     1      16.576  46.320  20.694  1.00  0.00    +0.171 C 
ATOM      5  C   UNL     1      15.183  46.651  21.244  1.00  0.00    +0.149 C 
ATOM      6  C   UNL     1      14.246  47.090  20.121  1.00  0.00    +0.082 C 
ENDROOT
BRANCH   1   7
ATOM      7  C   UNL     1      13.923  48.680  18.181  1.00  0.00    +0.335 C 
ATOM      8  O   UNL     1      12.705  48.792  18.198  1.00  0.00    -0.249 OA
BRANCH   7   9
ATOM      9  O   UNL     1      14.607  48.950  17.052  1.00  0.00    -0.479 OA
ATOM     10  H   UNL     1      14.091  48.499  16.350  1.00  0.00    +0.296 HD
ENDBRANCH   7   9
ENDBRANCH   1   7
BRANCH   1  11
ATOM     11  O   UNL     1      14.807  49.389  20.310  1.00  0.00    -0.378 OA
ATOM     12  H   UNL     1      14.301  49.104  21.092  1.00  0.00    +0.212 HD
ENDBRANCH   1  11
BRANCH   3  13
ATOM     13  O   UNL     1      17.555  48.537  20.831  1.00  0.00    -0.390 OA
ATOM     14  H   UNL     1      18.182  48.117  21.455  1.00  0.00    +0.211 HD
ENDBRANCH   3  13
BRANCH   5  15
ATOM     15  O   UNL     1      14.667  45.468  21.871  1.00  0.00    -0.390 OA
ATOM     16  H   UNL     1      14.491  44.826  21.159  1.00  0.00    +0.211 HD
ENDBRANCH   5  15
BRANCH   4  17
ATOM     17  O   UNL     1      17.444  45.980  21.787  1.00  0.00    -0.388 OA
ATOM     18  H   UNL     1      18.348  46.058  21.416  1.00  0.00    +0.211 HD
ENDBRANCH   4  17
TORSDOF 6
ENDMDL
