REMARK SMILES CCCCCCCC/C=C\CCCCCCCC(=O)O
REMARK SMILES IDX 11 1 12 2 13 3 14 4 15 5 16 6 17 7 18 8 19 9 20 10 10 12
REMARK SMILES IDX 9 13 8 14 7 15 6 16 5 17 4 18 3 19 2 20 1 21
REMARK H PARENT 20 11
ROOT
ATOM      1  C   UNL     1       1.916  -0.553  -2.746  1.00  0.00    +0.027 C
ENDROOT
BRANCH   1   2
ATOM      2  C   UNL     1       3.124  -0.176  -1.884  1.00  0.00    +0.004 C
BRANCH   2   3
ATOM      3  C   UNL     1       2.774  -0.012  -0.402  1.00  0.00    +0.000 C
BRANCH   3   4
ATOM      4  C   UNL     1       3.992   0.440   0.408  1.00  0.00    +0.000 C
BRANCH   4   5
ATOM      5  C   UNL     1       3.645   0.596   1.889  1.00  0.00    +0.001 C
BRANCH   5   6
ATOM      6  C   UNL     1       4.781   1.171   2.743  1.00  0.00    +0.012 C
BRANCH   6   7
ATOM      7  C   UNL     1       6.007   0.264   2.855  1.00  0.00    +0.122 C
BRANCH   7   8
ATOM      8  C   UNL     1       7.002   0.458   1.742  1.00  0.00    +0.303 C
ATOM      9  O   UNL     1       7.107   1.417   0.997  1.00  0.00    -0.252 OA
BRANCH   8  10
ATOM     10  O   UNL     1       7.860  -0.576   1.648  1.00  0.00    -0.481 OA
ATOM     11  H   UNL     1       8.456  -0.323   0.912  1.00  0.00    +0.296 HD
ENDBRANCH   8  10
ENDBRANCH   7   8
ENDBRANCH   6   7
ENDBRANCH   5   6
ENDBRANCH   4   5
ENDBRANCH   3   4
ENDBRANCH   2   3
ENDBRANCH   1   2
BRANCH   1  12
ATOM     12  C   UNL     1       1.400  -1.936  -2.460  1.00  0.00    -0.031 C
ATOM     13  C   UNL     1       0.228  -2.269  -1.895  1.00  0.00    -0.031 C
BRANCH  13  14
ATOM     14  C   UNL     1      -0.826  -1.338  -1.364  1.00  0.00    +0.027 C
BRANCH  14  15
ATOM     15  C   UNL     1      -2.070  -1.347  -2.256  1.00  0.00    +0.004 C
BRANCH  15  16
ATOM     16  C   UNL     1      -3.139  -0.342  -1.818  1.00  0.00    +0.000 C
BRANCH  16  17
ATOM     17  C   UNL     1      -3.755  -0.665  -0.455  1.00  0.00    +0.000 C
BRANCH  17  18
ATOM     18  C   UNL     1      -4.893   0.303  -0.118  1.00  0.00    -0.000 C
BRANCH  18  19
ATOM     19  C   UNL     1      -5.509  -0.019   1.245  1.00  0.00    -0.000 C
BRANCH  19  20
ATOM     20  C   UNL     1      -6.582   0.982   1.678  1.00  0.00    -0.003 C
ATOM     21  C   UNL     1      -7.819   0.967   0.793  1.00  0.00    +0.004 C
ENDBRANCH  19  20
ENDBRANCH  18  19
ENDBRANCH  17  18
ENDBRANCH  16  17
ENDBRANCH  15  16
ENDBRANCH  14  15
ENDBRANCH  13  14
ENDBRANCH   1  12
TORSDOF 16
