REMARK SMILES O=C(O)[C@]1(O)C[C@@H](O)[C@@H](O)[C@H](O)C1
REMARK SMILES IDX 4 1 13 2 11 3 9 4 7 5 6 6 2 7 1 8 3 9 5 11 12 13 8 15 10 17
REMARK H PARENT 3 10 5 12 12 14 8 16 10 18
ROOT
ATOM      1  C   UNL     1      -1.063  -0.511   0.316  1.00  0.00    +0.166 C 
ATOM      2  C   UNL     1      -1.103   0.578  -0.774  1.00  0.00    +0.082 C 
ATOM      3  C   UNL     1       0.065   1.562  -0.704  1.00  0.00    +0.149 C 
ATOM      4  C   UNL     1       1.416   0.853  -0.570  1.00  0.00    +0.171 C 
ATOM      5  C   UNL     1       1.423  -0.170   0.572  1.00  0.00    +0.149 C 
ATOM      6  C   UNL     1       0.306  -1.195   0.389  1.00  0.00    +0.082 C 
ENDROOT
BRANCH   1   7
ATOM      7  C   UNL     1      -2.175  -1.529   0.025  1.00  0.00    +0.335 C 
ATOM      8  O   UNL     1      -3.237  -1.622   0.623  1.00  0.00    -0.249 OA
BRANCH   7   9
ATOM      9  O   UNL     1      -1.924  -2.332  -1.028  1.00  0.00    -0.479 OA
ATOM     10  H   UNL     1      -2.720  -2.903  -1.084  1.00  0.00    +0.296 HD
ENDBRANCH   7   9
ENDBRANCH   1   7
BRANCH   1  11
ATOM     11  O   UNL     1      -1.296   0.069   1.603  1.00  0.00    -0.378 OA
ATOM     12  H   UNL     1      -2.166   0.508   1.576  1.00  0.00    +0.212 HD
ENDBRANCH   1  11
BRANCH   3  13
ATOM     13  O   UNL     1      -0.128   2.460   0.392  1.00  0.00    -0.390 OA
ATOM     14  H   UNL     1       0.739   2.900   0.511  1.00  0.00    +0.211 HD
ENDBRANCH   3  13
BRANCH   5  15
ATOM     15  O   UNL     1       2.695  -0.833   0.560  1.00  0.00    -0.390 OA
ATOM     16  H   UNL     1       2.713  -1.421   1.337  1.00  0.00    +0.211 HD
ENDBRANCH   5  15
BRANCH   4  17
ATOM     17  O   UNL     1       2.434   1.837  -0.326  1.00  0.00    -0.388 OA
ATOM     18  H   UNL     1       3.231   1.315  -0.098  1.00  0.00    +0.211 HD
ENDBRANCH   4  17
TORSDOF 6
